  55  55   0   0
  0.1454545E+03  0.2000000E-08  0.2000000E-08  0.2000000E-08  0.5000000E-15
  1.000000000000000E-004
  CAR 
 c2_oh2_ruthenium_mol                    
      3.17796351    -51.55469701  301     -6.99318924      1.00000000
    -51.555  0.0000E+00  0.0000E+00  0.0000E+00  0.0000E+00
    -51.372  0.0000E+00  0.0000E+00  0.0000E+00  0.0000E+00
    -51.190  0.0000E+00  0.0000E+00  0.0000E+00  0.0000E+00
    -51.007  0.0000E+00  0.0000E+00  0.0000E+00  0.0000E+00
    -50.825  0.0000E+00  0.0000E+00  0.0000E+00  0.0000E+00
    -50.642  0.0000E+00  0.0000E+00  0.0000E+00  0.0000E+00
    -50.460  0.0000E+00  0.0000E+00  0.0000E+00  0.0000E+00
    -50.278  0.0000E+00  0.0000E+00  0.0000E+00  0.0000E+00
    -50.095  0.0000E+00  0.0000E+00  0.0000E+00  0.0000E+00
    -49.913  0.0000E+00  0.0000E+00  0.0000E+00  0.0000E+00
    -49.730  0.0000E+00  0.0000E+00  0.0000E+00  0.0000E+00
    -49.548  0.0000E+00  0.0000E+00  0.0000E+00  0.0000E+00
    -49.365  0.0000E+00  0.0000E+00  0.0000E+00  0.0000E+00
    -49.183  0.0000E+00  0.0000E+00  0.0000E+00  0.0000E+00
    -49.001  0.1096E+02  0.1096E+02  0.2000E+01  0.2000E+01
    -48.818  0.0000E+00  0.0000E+00  0.4000E+01  0.4000E+01
    -48.636  0.1096E+02  0.1096E+02  0.6000E+01  0.6000E+01
    -48.453  0.0000E+00  0.0000E+00  0.6000E+01  0.6000E+01
    -48.271  0.0000E+00  0.0000E+00  0.6000E+01  0.6000E+01
    -48.088  0.0000E+00  0.0000E+00  0.6000E+01  0.6000E+01
    -47.906  0.0000E+00  0.0000E+00  0.6000E+01  0.6000E+01
    -47.723  0.0000E+00  0.0000E+00  0.6000E+01  0.6000E+01
    -47.541  0.0000E+00  0.0000E+00  0.6000E+01  0.6000E+01
    -47.359  0.0000E+00  0.0000E+00  0.6000E+01  0.6000E+01
    -47.176  0.0000E+00  0.0000E+00  0.6000E+01  0.6000E+01
    -46.994  0.0000E+00  0.0000E+00  0.6000E+01  0.6000E+01
    -46.811  0.0000E+00  0.0000E+00  0.6000E+01  0.6000E+01
    -46.629  0.0000E+00  0.0000E+00  0.6000E+01  0.6000E+01
    -46.446  0.0000E+00  0.0000E+00  0.6000E+01  0.6000E+01
    -46.264  0.0000E+00  0.0000E+00  0.6000E+01  0.6000E+01
    -46.081  0.0000E+00  0.0000E+00  0.6000E+01  0.6000E+01
    -45.899  0.0000E+00  0.0000E+00  0.6000E+01  0.6000E+01
    -45.717  0.0000E+00  0.0000E+00  0.6000E+01  0.6000E+01
    -45.534  0.0000E+00  0.0000E+00  0.6000E+01  0.6000E+01
    -45.352  0.0000E+00  0.0000E+00  0.6000E+01  0.6000E+01
    -45.169  0.0000E+00  0.0000E+00  0.6000E+01  0.6000E+01
    -44.987  0.0000E+00  0.0000E+00  0.6000E+01  0.6000E+01
    -44.804  0.0000E+00  0.0000E+00  0.6000E+01  0.6000E+01
    -44.622  0.0000E+00  0.0000E+00  0.6000E+01  0.6000E+01
    -44.439  0.0000E+00  0.0000E+00  0.6000E+01  0.6000E+01
    -44.257  0.0000E+00  0.0000E+00  0.6000E+01  0.6000E+01
    -44.075  0.0000E+00  0.0000E+00  0.6000E+01  0.6000E+01
    -43.892  0.0000E+00  0.0000E+00  0.6000E+01  0.6000E+01
    -43.710  0.0000E+00  0.0000E+00  0.6000E+01  0.6000E+01
    -43.527  0.0000E+00  0.0000E+00  0.6000E+01  0.6000E+01
    -43.345  0.0000E+00  0.0000E+00  0.6000E+01  0.6000E+01
    -43.162  0.0000E+00  0.0000E+00  0.6000E+01  0.6000E+01
    -42.980  0.0000E+00  0.0000E+00  0.6000E+01  0.6000E+01
    -42.797  0.0000E+00  0.0000E+00  0.6000E+01  0.6000E+01
    -42.615  0.0000E+00  0.0000E+00  0.6000E+01  0.6000E+01
    -42.433  0.0000E+00  0.0000E+00  0.6000E+01  0.6000E+01
    -42.250  0.0000E+00  0.0000E+00  0.6000E+01  0.6000E+01
    -42.068  0.0000E+00  0.0000E+00  0.6000E+01  0.6000E+01
    -41.885  0.0000E+00  0.0000E+00  0.6000E+01  0.6000E+01
    -41.703  0.0000E+00  0.0000E+00  0.6000E+01  0.6000E+01
    -41.520  0.0000E+00  0.0000E+00  0.6000E+01  0.6000E+01
    -41.338  0.0000E+00  0.0000E+00  0.6000E+01  0.6000E+01
    -41.155  0.0000E+00  0.0000E+00  0.6000E+01  0.6000E+01
    -40.973  0.0000E+00  0.0000E+00  0.6000E+01  0.6000E+01
    -40.791  0.0000E+00  0.0000E+00  0.6000E+01  0.6000E+01
    -40.608  0.0000E+00  0.0000E+00  0.6000E+01  0.6000E+01
    -40.426  0.0000E+00  0.0000E+00  0.6000E+01  0.6000E+01
    -40.243  0.0000E+00  0.0000E+00  0.6000E+01  0.6000E+01
    -40.061  0.0000E+00  0.0000E+00  0.6000E+01  0.6000E+01
    -39.878  0.0000E+00  0.0000E+00  0.6000E+01  0.6000E+01
    -39.696  0.0000E+00  0.0000E+00  0.6000E+01  0.6000E+01
    -39.514  0.0000E+00  0.0000E+00  0.6000E+01  0.6000E+01
    -39.331  0.0000E+00  0.0000E+00  0.6000E+01  0.6000E+01
    -39.149  0.0000E+00  0.0000E+00  0.6000E+01  0.6000E+01
    -38.966  0.0000E+00  0.0000E+00  0.6000E+01  0.6000E+01
    -38.784  0.0000E+00  0.0000E+00  0.6000E+01  0.6000E+01
    -38.601  0.0000E+00  0.0000E+00  0.6000E+01  0.6000E+01
    -38.419  0.0000E+00  0.0000E+00  0.6000E+01  0.6000E+01
    -38.236  0.0000E+00  0.0000E+00  0.6000E+01  0.6000E+01
    -38.054  0.0000E+00  0.0000E+00  0.6000E+01  0.6000E+01
    -37.872  0.0000E+00  0.0000E+00  0.6000E+01  0.6000E+01
    -37.689  0.0000E+00  0.0000E+00  0.6000E+01  0.6000E+01
    -37.507  0.0000E+00  0.0000E+00  0.6000E+01  0.6000E+01
    -37.324  0.0000E+00  0.0000E+00  0.6000E+01  0.6000E+01
    -37.142  0.0000E+00  0.0000E+00  0.6000E+01  0.6000E+01
    -36.959  0.0000E+00  0.0000E+00  0.6000E+01  0.6000E+01
    -36.777  0.0000E+00  0.0000E+00  0.6000E+01  0.6000E+01
    -36.594  0.0000E+00  0.0000E+00  0.6000E+01  0.6000E+01
    -36.412  0.0000E+00  0.0000E+00  0.6000E+01  0.6000E+01
    -36.230  0.0000E+00  0.0000E+00  0.6000E+01  0.6000E+01
    -36.047  0.0000E+00  0.0000E+00  0.6000E+01  0.6000E+01
    -35.865  0.0000E+00  0.0000E+00  0.6000E+01  0.6000E+01
    -35.682  0.0000E+00  0.0000E+00  0.6000E+01  0.6000E+01
    -35.500  0.0000E+00  0.0000E+00  0.6000E+01  0.6000E+01
    -35.317  0.0000E+00  0.0000E+00  0.6000E+01  0.6000E+01
    -35.135  0.0000E+00  0.0000E+00  0.6000E+01  0.6000E+01
    -34.952  0.0000E+00  0.0000E+00  0.6000E+01  0.6000E+01
    -34.770  0.0000E+00  0.0000E+00  0.6000E+01  0.6000E+01
    -34.588  0.0000E+00  0.0000E+00  0.6000E+01  0.6000E+01
    -34.405  0.0000E+00  0.0000E+00  0.6000E+01  0.6000E+01
    -34.223  0.0000E+00  0.0000E+00  0.6000E+01  0.6000E+01
    -34.040  0.0000E+00  0.0000E+00  0.6000E+01  0.6000E+01
    -33.858  0.0000E+00  0.0000E+00  0.6000E+01  0.6000E+01
    -33.675  0.0000E+00  0.0000E+00  0.6000E+01  0.6000E+01
    -33.493  0.0000E+00  0.0000E+00  0.6000E+01  0.6000E+01
    -33.310  0.0000E+00  0.0000E+00  0.6000E+01  0.6000E+01
    -33.128  0.0000E+00  0.0000E+00  0.6000E+01  0.6000E+01
    -32.946  0.0000E+00  0.0000E+00  0.6000E+01  0.6000E+01
    -32.763  0.0000E+00  0.0000E+00  0.6000E+01  0.6000E+01
    -32.581  0.0000E+00  0.0000E+00  0.6000E+01  0.6000E+01
    -32.398  0.0000E+00  0.0000E+00  0.6000E+01  0.6000E+01
    -32.216  0.0000E+00  0.0000E+00  0.6000E+01  0.6000E+01
    -32.033  0.0000E+00  0.0000E+00  0.6000E+01  0.6000E+01
    -31.851  0.0000E+00  0.0000E+00  0.6000E+01  0.6000E+01
    -31.668  0.0000E+00  0.0000E+00  0.6000E+01  0.6000E+01
    -31.486  0.0000E+00  0.0000E+00  0.6000E+01  0.6000E+01
    -31.304  0.0000E+00  0.0000E+00  0.6000E+01  0.6000E+01
    -31.121  0.0000E+00  0.0000E+00  0.6000E+01  0.6000E+01
    -30.939  0.0000E+00  0.0000E+00  0.6000E+01  0.6000E+01
    -30.756  0.0000E+00  0.0000E+00  0.6000E+01  0.6000E+01
    -30.574  0.0000E+00  0.0000E+00  0.6000E+01  0.6000E+01
    -30.391  0.0000E+00  0.0000E+00  0.6000E+01  0.6000E+01
    -30.209  0.0000E+00  0.0000E+00  0.6000E+01  0.6000E+01
    -30.027  0.0000E+00  0.0000E+00  0.6000E+01  0.6000E+01
    -29.844  0.0000E+00  0.0000E+00  0.6000E+01  0.6000E+01
    -29.662  0.0000E+00  0.0000E+00  0.6000E+01  0.6000E+01
    -29.479  0.0000E+00  0.0000E+00  0.6000E+01  0.6000E+01
    -29.297  0.0000E+00  0.0000E+00  0.6000E+01  0.6000E+01
    -29.114  0.0000E+00  0.0000E+00  0.8000E+01  0.8000E+01
    -28.932  0.0000E+00  0.0000E+00  0.8000E+01  0.8000E+01
    -28.749  0.0000E+00  0.0000E+00  0.8000E+01  0.8000E+01
    -28.567  0.0000E+00  0.0000E+00  0.8000E+01  0.8000E+01
    -28.385  0.0000E+00  0.0000E+00  0.8000E+01  0.8000E+01
    -28.202  0.0000E+00  0.0000E+00  0.8000E+01  0.8000E+01
    -28.020  0.0000E+00  0.0000E+00  0.8000E+01  0.8000E+01
    -27.837  0.0000E+00  0.0000E+00  0.8000E+01  0.8000E+01
    -27.655  0.0000E+00  0.0000E+00  0.8000E+01  0.8000E+01
    -27.472  0.1096E+02  0.1096E+02  0.1000E+02  0.1000E+02
    -27.290  0.0000E+00  0.0000E+00  0.1000E+02  0.1000E+02
    -27.107  0.0000E+00  0.0000E+00  0.1000E+02  0.1000E+02
    -26.925  0.0000E+00  0.0000E+00  0.1000E+02  0.1000E+02
    -26.743  0.1096E+02  0.1096E+02  0.1200E+02  0.1200E+02
    -26.560  0.1092E+02  0.1092E+02  0.1399E+02  0.1399E+02
    -26.378  0.0000E+00  0.0000E+00  0.1400E+02  0.1400E+02
    -26.195  0.6801E-08  0.6801E-08  0.1400E+02  0.1400E+02
    -26.013  0.0000E+00  0.0000E+00  0.1800E+02  0.1800E+02
    -25.830  0.0000E+00  0.0000E+00  0.1800E+02  0.1800E+02
    -25.648  0.0000E+00  0.0000E+00  0.1800E+02  0.1800E+02
    -25.465  0.0000E+00  0.0000E+00  0.1800E+02  0.1800E+02
    -25.283  0.0000E+00  0.0000E+00  0.1800E+02  0.1800E+02
    -25.101  0.0000E+00  0.0000E+00  0.1800E+02  0.1800E+02
    -24.918  0.0000E+00  0.0000E+00  0.1800E+02  0.1800E+02
    -24.736  0.0000E+00  0.0000E+00  0.1800E+02  0.1800E+02
    -24.553  0.0000E+00  0.0000E+00  0.1800E+02  0.1800E+02
    -24.371  0.0000E+00  0.0000E+00  0.1800E+02  0.1800E+02
    -24.188  0.0000E+00  0.0000E+00  0.1800E+02  0.1800E+02
    -24.006  0.1096E+02  0.1096E+02  0.2000E+02  0.2000E+02
    -23.823  0.0000E+00  0.0000E+00  0.2000E+02  0.2000E+02
    -23.641  0.0000E+00  0.0000E+00  0.2000E+02  0.2000E+02
    -23.459  0.0000E+00  0.0000E+00  0.2000E+02  0.2000E+02
    -23.276  0.0000E+00  0.0000E+00  0.2000E+02  0.2000E+02
    -23.094  0.0000E+00  0.0000E+00  0.2000E+02  0.2000E+02
    -22.911  0.0000E+00  0.0000E+00  0.2200E+02  0.2200E+02
    -22.729  0.0000E+00  0.0000E+00  0.2200E+02  0.2200E+02
    -22.546  0.6214E-01  0.6213E-01  0.2201E+02  0.2201E+02
    -22.364  0.8599E+01  0.8599E+01  0.2557E+02  0.2557E+02
    -22.182  0.1301E-09  0.1301E-09  0.2800E+02  0.2800E+02
    -21.999  0.1096E+02  0.1096E+02  0.3200E+02  0.3200E+02
    -21.817  0.0000E+00  0.0000E+00  0.3200E+02  0.3200E+02
    -21.634  0.0000E+00  0.0000E+00  0.3200E+02  0.3200E+02
    -21.452  0.0000E+00  0.0000E+00  0.3400E+02  0.3400E+02
    -21.269  0.0000E+00  0.0000E+00  0.3400E+02  0.3400E+02
    -21.087  0.1024E+02  0.1024E+02  0.3587E+02  0.3587E+02
    -20.904  0.0000E+00  0.0000E+00  0.3600E+02  0.3600E+02
    -20.722  0.1084E+02  0.1084E+02  0.3798E+02  0.3798E+02
    -20.540  0.0000E+00  0.0000E+00  0.3800E+02  0.3800E+02
    -20.357  0.0000E+00  0.0000E+00  0.3800E+02  0.3800E+02
    -20.175  0.0000E+00  0.0000E+00  0.3800E+02  0.3800E+02
    -19.992  0.0000E+00  0.0000E+00  0.3800E+02  0.3800E+02
    -19.810  0.0000E+00  0.0000E+00  0.3800E+02  0.3800E+02
    -19.627  0.1014E+00  0.1014E+00  0.3802E+02  0.3802E+02
    -19.445  0.0000E+00  0.0000E+00  0.4000E+02  0.4000E+02
    -19.262  0.0000E+00  0.0000E+00  0.4200E+02  0.4200E+02
    -19.080  0.0000E+00  0.0000E+00  0.4200E+02  0.4200E+02
    -18.898  0.0000E+00  0.0000E+00  0.4200E+02  0.4200E+02
    -18.715  0.8495E-07  0.8495E-07  0.4200E+02  0.4200E+02
    -18.533  0.0000E+00  0.0000E+00  0.4400E+02  0.4400E+02
    -18.350  0.1096E+02  0.1096E+02  0.4600E+02  0.4600E+02
    -18.168  0.5830E+00  0.5831E+00  0.4611E+02  0.4611E+02
    -17.985  0.0000E+00  0.0000E+00  0.4800E+02  0.4800E+02
    -17.803  0.1095E+02  0.1095E+02  0.5200E+02  0.5200E+02
    -17.620  0.1308E+01  0.1308E+01  0.5224E+02  0.5224E+02
    -17.438  0.0000E+00  0.0000E+00  0.5600E+02  0.5600E+02
    -17.256  0.1492E+01  0.1492E+01  0.5627E+02  0.5627E+02
    -17.073  0.0000E+00  0.0000E+00  0.5800E+02  0.5800E+02
    -16.891  0.3015E+00  0.3015E+00  0.5805E+02  0.5806E+02
    -16.708  0.0000E+00  0.0000E+00  0.6000E+02  0.6000E+02
    -16.526  0.0000E+00  0.0000E+00  0.6200E+02  0.6200E+02
    -16.343  0.0000E+00  0.0000E+00  0.6200E+02  0.6200E+02
    -16.161  0.0000E+00  0.0000E+00  0.6200E+02  0.6200E+02
    -15.978  0.0000E+00  0.0000E+00  0.6200E+02  0.6200E+02
    -15.796  0.1099E+02  0.1099E+02  0.6401E+02  0.6401E+02
    -15.614  0.1094E+02  0.1094E+02  0.6800E+02  0.6800E+02
    -15.431  0.0000E+00  0.0000E+00  0.6800E+02  0.6800E+02
    -15.249  0.4548E+00  0.4548E+00  0.6808E+02  0.6808E+02
    -15.066  0.0000E+00  0.0000E+00  0.7000E+02  0.7000E+02
    -14.884  0.0000E+00  0.0000E+00  0.7000E+02  0.7000E+02
    -14.701  0.2148E+02  0.2148E+02  0.7392E+02  0.7392E+02
    -14.519  0.0000E+00  0.0000E+00  0.7600E+02  0.7600E+02
    -14.336  0.1096E+02  0.1096E+02  0.7800E+02  0.7800E+02
    -14.154  0.0000E+00  0.0000E+00  0.7800E+02  0.7800E+02
    -13.972  0.2188E+02  0.2188E+02  0.8399E+02  0.8399E+02
    -13.789  0.2192E+02  0.2192E+02  0.8800E+02  0.8800E+02
    -13.607  0.9496E-03  0.9495E-03  0.9000E+02  0.9000E+02
    -13.424  0.1138E-04  0.1138E-04  0.9400E+02  0.9400E+02
    -13.242  0.1385E-04  0.1385E-04  0.9600E+02  0.9600E+02
    -13.059  0.8477E+01  0.8477E+01  0.9955E+02  0.9955E+02
    -12.877  0.3933E-03  0.3933E-03  0.1000E+03  0.1000E+03
    -12.695  0.1096E+02  0.1096E+02  0.1060E+03  0.1060E+03
    -12.512  0.1096E+02  0.1096E+02  0.1100E+03  0.1100E+03
    -12.330  0.1096E+02  0.1096E+02  0.1140E+03  0.1140E+03
    -12.147  0.1096E+02  0.1096E+02  0.1160E+03  0.1160E+03
    -11.965  0.1096E+02  0.1096E+02  0.1200E+03  0.1200E+03
    -11.782  0.0000E+00  0.0000E+00  0.1200E+03  0.1200E+03
    -11.600  0.1096E+02  0.1096E+02  0.1220E+03  0.1220E+03
    -11.417  0.1096E+02  0.1096E+02  0.1240E+03  0.1240E+03
    -11.235  0.1096E+02  0.1096E+02  0.1260E+03  0.1260E+03
    -11.053  0.6315E+00  0.6315E+00  0.1281E+03  0.1281E+03
    -10.870  0.0000E+00  0.0000E+00  0.1320E+03  0.1320E+03
    -10.688  0.2192E+02  0.2192E+02  0.1360E+03  0.1360E+03
    -10.505  0.0000E+00  0.0000E+00  0.1360E+03  0.1360E+03
    -10.323  0.0000E+00  0.0000E+00  0.1400E+03  0.1400E+03
    -10.140  0.1095E-13  0.1095E-13  0.1400E+03  0.1400E+03
     -9.958  0.0000E+00  0.0000E+00  0.1440E+03  0.1440E+03
     -9.775  0.1096E+02  0.1096E+02  0.1460E+03  0.1460E+03
     -9.593  0.2208E-02  0.2208E-02  0.1500E+03  0.1500E+03
     -9.411  0.0000E+00  0.0000E+00  0.1520E+03  0.1520E+03
     -9.228  0.0000E+00  0.0000E+00  0.1540E+03  0.1540E+03
     -9.046  0.5714E-01  0.5714E-01  0.1540E+03  0.1540E+03
     -8.863  0.0000E+00  0.0000E+00  0.1560E+03  0.1560E+03
     -8.681  0.1096E+02  0.1096E+02  0.1580E+03  0.1580E+03
     -8.498  0.0000E+00  0.0000E+00  0.1580E+03  0.1580E+03
     -8.316  0.5818E+01  0.5818E+01  0.1591E+03  0.1591E+03
     -8.133  0.0000E+00  0.0000E+00  0.1600E+03  0.1600E+03
     -7.951  0.0000E+00  0.0000E+00  0.1600E+03  0.1600E+03
     -7.769  0.0000E+00  0.0000E+00  0.1600E+03  0.1600E+03
     -7.586  0.0000E+00  0.0000E+00  0.1600E+03  0.1600E+03
     -7.404  0.9741E+01  0.9741E+01  0.1618E+03  0.1618E+03
     -7.221  0.1095E+02  0.1095E+02  0.1640E+03  0.1640E+03
     -7.039  0.1096E+02  0.1096E+02  0.1660E+03  0.1660E+03
     -6.856  0.0000E+00  0.0000E+00  0.1660E+03  0.1660E+03
     -6.674  0.0000E+00  0.0000E+00  0.1660E+03  0.1660E+03
     -6.491  0.0000E+00  0.0000E+00  0.1660E+03  0.1660E+03
     -6.309  0.0000E+00  0.0000E+00  0.1660E+03  0.1660E+03
     -6.127  0.0000E+00  0.0000E+00  0.1660E+03  0.1660E+03
     -5.944  0.0000E+00  0.0000E+00  0.1660E+03  0.1660E+03
     -5.762  0.1096E+02  0.1096E+02  0.1680E+03  0.1680E+03
     -5.579  0.0000E+00  0.0000E+00  0.1680E+03  0.1680E+03
     -5.397  0.0000E+00  0.0000E+00  0.1680E+03  0.1680E+03
     -5.214  0.0000E+00  0.0000E+00  0.1680E+03  0.1680E+03
     -5.032  0.1095E+02  0.1095E+02  0.1700E+03  0.1700E+03
     -4.849  0.1096E+02  0.1096E+02  0.1720E+03  0.1720E+03
     -4.667  0.0000E+00  0.0000E+00  0.1720E+03  0.1720E+03
     -4.485  0.0000E+00  0.0000E+00  0.1720E+03  0.1720E+03
     -4.302  0.1096E+02  0.1096E+02  0.1740E+03  0.1740E+03
     -4.120  0.4945E+01  0.4945E+01  0.1749E+03  0.1749E+03
     -3.937  0.6059E-05  0.6060E-05  0.1780E+03  0.1780E+03
     -3.755  0.0000E+00  0.0000E+00  0.1820E+03  0.1820E+03
     -3.572  0.1380E+01  0.1380E+01  0.1823E+03  0.1823E+03
     -3.390  0.1096E+02  0.1096E+02  0.1860E+03  0.1860E+03
     -3.208  0.0000E+00  0.0000E+00  0.1860E+03  0.1860E+03
     -3.025  0.0000E+00  0.0000E+00  0.1880E+03  0.1880E+03
     -2.843  0.0000E+00  0.0000E+00  0.1900E+03  0.1900E+03
     -2.660  0.3562E+01  0.3562E+01  0.1906E+03  0.1906E+03
     -2.478  0.0000E+00  0.0000E+00  0.1920E+03  0.1920E+03
     -2.295  0.0000E+00  0.0000E+00  0.1920E+03  0.1920E+03
     -2.113  0.0000E+00  0.0000E+00  0.1920E+03  0.1920E+03
     -1.930  0.1096E+02  0.1096E+02  0.1940E+03  0.1940E+03
     -1.748  0.6591E-06  0.6594E-06  0.1940E+03  0.1940E+03
     -1.566  0.1096E+02  0.1096E+02  0.1980E+03  0.1980E+03
     -1.383  0.3636E-11  0.3637E-11  0.2000E+03  0.2000E+03
     -1.201  0.1096E+02  0.1096E+02  0.2040E+03  0.2040E+03
     -1.018  0.1145E+02  0.1145E+02  0.2061E+03  0.2061E+03
     -0.836  0.0000E+00  0.0000E+00  0.2100E+03  0.2100E+03
     -0.653  0.2224E+02  0.2224E+02  0.2141E+03  0.2141E+03
     -0.471  0.1096E+02  0.1096E+02  0.2180E+03  0.2180E+03
     -0.288  0.1404E+02  0.1404E+02  0.2246E+03  0.2246E+03
     -0.106  0.1096E+02  0.1096E+02  0.2280E+03  0.2280E+03
      0.076  0.1127E+02  0.1127E+02  0.2321E+03  0.2321E+03
      0.259  0.2197E+02  0.2197E+02  0.2380E+03  0.2380E+03
      0.441  0.2181E+02  0.2181E+02  0.2460E+03  0.2460E+03
      0.624  0.1676E+02  0.1677E+02  0.2511E+03  0.2511E+03
      0.806  0.0000E+00  0.0000E+00  0.2560E+03  0.2560E+03
      0.989  0.0000E+00  0.0000E+00  0.2560E+03  0.2560E+03
      1.171  0.0000E+00  0.0000E+00  0.2560E+03  0.2560E+03
      1.354  0.0000E+00  0.0000E+00  0.2560E+03  0.2560E+03
      1.536  0.0000E+00  0.0000E+00  0.2560E+03  0.2560E+03
      1.718  0.0000E+00  0.0000E+00  0.2560E+03  0.2560E+03
      1.901  0.0000E+00  0.0000E+00  0.2560E+03  0.2560E+03
      2.083  0.0000E+00  0.0000E+00  0.2560E+03  0.2560E+03
      2.266  0.0000E+00  0.0000E+00  0.2560E+03  0.2560E+03
      2.448  0.0000E+00  0.0000E+00  0.2560E+03  0.2560E+03
      2.631  0.0000E+00  0.0000E+00  0.2560E+03  0.2560E+03
      2.813  0.0000E+00  0.0000E+00  0.2560E+03  0.2560E+03
      2.996  0.0000E+00  0.0000E+00  0.2560E+03  0.2560E+03
      3.178  0.0000E+00  0.0000E+00  0.2560E+03  0.2560E+03
