   55   55    1    2
  0.1454545E+03  0.2000000E-08  0.2000000E-08  0.2000000E-08  0.5000000E-15
  1.000000000000000E-004
  CAR 
 c2_oh2_ruthenium_mol                    
    166      1    128
 
  0.0000000E+00  0.0000000E+00  0.0000000E+00  0.1000000E+01
    1      -49.066849    -49.066848
    2      -48.921601    -48.921601
    3      -48.699131    -48.699131
    4      -29.201746    -29.201746
    5      -27.525235    -27.525235
    6      -26.820605    -26.820605
    7      -26.578725    -26.578725
    8      -26.152275    -26.152275
    9      -26.099330    -26.099330
   10      -24.069203    -24.069203
   11      -23.033750    -23.033750
   12      -22.528482    -22.528482
   13      -22.369510    -22.369510
   14      -22.262169    -22.262169
   15      -22.134261    -22.134261
   16      -22.024204    -22.024204
   17      -21.550168    -21.550168
   18      -21.097490    -21.097490
   19      -20.738112    -20.738112
   20      -19.610656    -19.610656
   21      -19.349841    -19.349841
   22      -18.675107    -18.675107
   23      -18.391936    -18.391936
   24      -18.156356    -18.156356
   25      -17.916443    -17.916443
   26      -17.825120    -17.825120
   27      -17.612115    -17.612115
   28      -17.555440    -17.555440
   29      -17.247800    -17.247799
   30      -16.877110    -16.877110
   31      -16.629963    -16.629963
   32      -15.843853    -15.843853
   33      -15.776538    -15.776538
   34      -15.634013    -15.634012
   35      -15.236440    -15.236440
   36      -14.734837    -14.734837
   37      -14.713707    -14.713707
   38      -14.656673    -14.656673
   39      -14.361073    -14.361073
   40      -14.080504    -14.080504
   41      -14.038167    -14.038167
   42      -13.990272    -13.990272
   43      -13.834942    -13.834942
   44      -13.816291    -13.816291
   45      -13.733165    -13.733165
   46      -13.580166    -13.580166
   47      -13.565190    -13.565190
   48      -13.390719    -13.390719
   49      -13.208558    -13.208558
   50      -13.064694    -13.064694
   51      -12.848875    -12.848875
   52      -12.835051    -12.835051
   53      -12.767783    -12.767783
   54      -12.646201    -12.646201
   55      -12.552149    -12.552149
   56      -12.435475    -12.435475
   57      -12.362323    -12.362323
   58      -12.225069    -12.225069
   59      -12.109616    -12.109616
   60      -12.025385    -12.025385
   61      -11.627668    -11.627668
   62      -11.491926    -11.491926
   63      -11.293367    -11.293367
   64      -11.141256    -11.141256
   65      -11.041390    -11.041390
   66      -10.988883    -10.988883
   67      -10.738038    -10.738038
   68      -10.724493    -10.724493
   69      -10.437613    -10.437613
   70      -10.405972    -10.405972
   71      -10.084161    -10.084161
   72      -10.040767    -10.040767
   73       -9.842804     -9.842804
   74       -9.727199     -9.727199
   75       -9.677721     -9.677721
   76       -9.567972     -9.567972
   77       -9.349869     -9.349869
   78       -9.027552     -9.027552
   79       -8.729538     -8.729538
   80       -8.316441     -8.316441
   81       -7.412305     -7.412304
   82       -7.243044     -7.243044
   83       -7.091086     -7.091086
   84       -5.786715     -5.786715
   85       -5.053923     -5.053923
   86       -4.897415     -4.897415
   87       -4.335808     -4.335808
   88       -4.118856     -4.118856
   89       -4.056398     -4.056398
   90       -3.902833     -3.902833
   91       -3.842323     -3.842323
   92       -3.564293     -3.564293
   93       -3.436003     -3.436003
   94       -3.143009     -3.143009
   95       -2.924158     -2.924157
   96       -2.656976     -2.656976
   97       -1.994633     -1.994634
   98       -1.710548     -1.710548
   99       -1.594640     -1.594641
  100       -1.463804     -1.463805
  101       -1.332273     -1.332274
  102       -1.233209     -1.233210
  103       -1.075885     -1.075886
  104       -1.006196     -1.006201
  105       -0.952729     -0.952731
  106       -0.680420     -0.680421
  107       -0.674468     -0.674472
  108       -0.640002     -0.640003
  109       -0.511787     -0.511790
  110       -0.401818     -0.401821
  111       -0.393826     -0.393831
  112       -0.306497     -0.306502
  113       -0.284439     -0.284443
  114       -0.170328     -0.170337
  115       -0.073472     -0.073476
  116        0.013092      0.013087
  117        0.089926      0.089920
  118        0.184467      0.184465
  119        0.210621      0.210617
  120        0.277820      0.277818
  121        0.317879      0.317872
  122        0.378352      0.378343
  123        0.425081      0.425076
  124        0.486265      0.486256
  125        0.554499      0.554495
  126        0.623360      0.623350
  127        0.641664      0.641655
  128        0.690115      0.690113
