       N       E                     dE             d eps       ncg     rms          rms(c)
DAV:   1     0.909278493459E+03    0.90928E+03   -0.58811E+04   768   0.974E+02
DAV:   2    -0.688793406575E+02   -0.97816E+03   -0.97170E+03  1024   0.160E+02
DAV:   3    -0.393452082824E+03   -0.32457E+03   -0.32414E+03   832   0.847E+01
DAV:   4    -0.411990998007E+03   -0.18539E+02   -0.18517E+02   640   0.257E+01
DAV:   5    -0.412242186341E+03   -0.25119E+00   -0.25108E+00   896   0.314E+00    0.568E+01
DAV:   6    -0.392719844792E+03    0.19522E+02   -0.31703E+02   512   0.225E+01    0.378E+01
DAV:   7    -0.382659126800E+03    0.10061E+02   -0.23375E+01   704   0.196E+01    0.231E+01
DAV:   8    -0.378715359894E+03    0.39438E+01   -0.16591E+01   768   0.895E+00    0.914E+00
DAV:   9    -0.377670441281E+03    0.10449E+01   -0.73321E+00   768   0.499E+00    0.349E+00
DAV:  10    -0.377638262582E+03    0.32179E-01   -0.23480E-01   768   0.124E+00    0.252E+00
DAV:  11    -0.377500479346E+03    0.13778E+00   -0.16315E-01   768   0.963E-01    0.110E+00
DAV:  12    -0.377424619497E+03    0.75860E-01   -0.11531E-01   768   0.742E-01    0.685E-01
DAV:  13    -0.377404788118E+03    0.19831E-01   -0.23814E-02   768   0.423E-01    0.460E-01
DAV:  14    -0.377396653534E+03    0.81346E-02   -0.14601E-02   768   0.302E-01    0.264E-01
DAV:  15    -0.377399206715E+03   -0.25532E-02   -0.51260E-03   768   0.195E-01    0.226E-01
DAV:  16    -0.377410535333E+03   -0.11329E-01   -0.30282E-03   768   0.158E-01    0.966E-02
DAV:  17    -0.377415881552E+03   -0.53462E-02   -0.12926E-03   768   0.984E-02    0.763E-02
DAV:  18    -0.377420813780E+03   -0.49322E-02   -0.47143E-04   768   0.675E-02    0.567E-02
DAV:  19    -0.377424185053E+03   -0.33713E-02   -0.21325E-04   768   0.437E-02    0.335E-02
DAV:  20    -0.377426423860E+03   -0.22388E-02   -0.10649E-04   768   0.298E-02    0.222E-02
DAV:  21    -0.377427828465E+03   -0.14046E-02   -0.36269E-05   768   0.178E-02    0.142E-02
DAV:  22    -0.377428804225E+03   -0.97576E-03   -0.21361E-05   768   0.119E-02    0.103E-02
DAV:  23    -0.377429454744E+03   -0.65052E-03   -0.14926E-05   640   0.870E-03    0.674E-03
DAV:  24    -0.377429813412E+03   -0.35867E-03   -0.90416E-06   640   0.606E-03    0.304E-03
DAV:  25    -0.377430001249E+03   -0.18784E-03   -0.31068E-06   640   0.344E-03    0.203E-03
DAV:  26    -0.377430118950E+03   -0.11770E-03   -0.17673E-06   640   0.247E-03    0.139E-03
DAV:  27    -0.377430179246E+03   -0.60295E-04   -0.85444E-07   640   0.170E-03    0.849E-04
DAV:  28    -0.377430209051E+03   -0.29805E-04   -0.24384E-07   640   0.104E-03    0.517E-04
DAV:  29    -0.377430227163E+03   -0.18112E-04   -0.10138E-07   640   0.785E-04    0.352E-04
DAV:  30    -0.377430236853E+03   -0.96906E-05    0.41957E-09   640   0.574E-04
   1 F= -.37743024E+03 E0= -.37743024E+03  d E =-.134815E-43  mag=    -0.0000
