<?xml version="1.0" encoding="ISO-8859-1"?>
<modeling>
 <generator>
  <i name="program" type="string">vasp </i>
  <i name="version" type="string">5.3.5  </i>
  <i name="subversion" type="string">31Mar14 (build Apr 08 2014 12:00:03) complex                          parallel </i>
  <i name="platform" type="string">NSC-NSCPATCH-BUILD02 </i>
  <i name="date" type="string">2017 03 15 </i>
  <i name="time" type="string">18:46:22 </i>
 </generator>
 <incar>
  <i type="string" name="SYSTEM"> c2_oh2_ruthenium_mol</i>
  <i type="int" name="ISTART">     0</i>
  <i type="string" name="PREC">accurate</i>
  <i type="int" name="IALGO">    38</i>
  <i type="logical" name="ADDGRID"> T  </i>
  <i type="int" name="ISPIN">     2</i>
  <i name="BMIX">      2.00000000</i>
  <i type="int" name="ICHARG">     2</i>
  <i name="EDIFF">      0.00001000</i>
  <i name="EDIFFG">     -0.01000000</i>
  <i name="ENCUT">    700.00000000</i>
  <i name="POTIM">      0.50000000</i>
  <i name="NUPDOWN">      0.00000000</i>
  <i name="NELECT">    166.00000000</i>
  <i type="string" name="LREAL"> Auto</i>
  <i name="TIME">      0.05000000</i>
  <i type="int" name="ISMEAR">     0</i>
  <i name="SIGMA">      0.01000000</i>
  <i type="int" name="ICORELEVEL">     2</i>
  <i type="int" name="CLNT">     1</i>
  <i type="int" name="CLN">     1</i>
  <i type="int" name="INCAR     ">     0</i>
  <i name="CLZ">      0.50000000</i>
 </incar>
 <kpoints>
  <generation param="Monkhorst-Pack">
   <v type="int" name="divisions">       1        1        1 </v>
   <v name="usershift">      0.00000000       0.00000000       0.00000000 </v>
   <v name="genvec1">      1.00000000       0.00000000       0.00000000 </v>
   <v name="genvec2">      0.00000000       1.00000000       0.00000000 </v>
   <v name="genvec3">      0.00000000       0.00000000       1.00000000 </v>
   <v name="shift">      0.00000000       0.00000000       0.00000000 </v>
  </generation>
  <varray name="kpointlist" >
   <v>       0.00000000       0.00000000       0.00000000 </v>
  </varray>
  <varray name="weights" >
   <v>       1.00000000 </v>
  </varray>
 </kpoints>
 <parameters>
  <separator name="general" >
   <i type="string" name="SYSTEM">c2_oh2_ruthenium_mol</i>
   <i type="logical" name="LCOMPAT"> F  </i>
  </separator>
  <separator name="electronic" >
   <i type="string" name="PREC">accura</i>
   <i name="ENMAX">    700.00000000</i>
   <i name="ENAUG">    946.76800000</i>
   <i name="EDIFF">      0.00001000</i>
   <i type="int" name="IALGO">    38</i>
   <i type="int" name="IWAVPR">    10</i>
   <i type="int" name="NBANDS">   128</i>
   <i name="NELECT">    166.00000000</i>
   <i type="int" name="TURBO">     0</i>
   <i type="int" name="IRESTART">     0</i>
   <i type="int" name="NREBOOT">     0</i>
   <i type="int" name="NMIN">     0</i>
   <i name="EREF">      0.00000000</i>
   <separator name="electronic smearing" >
    <i type="int" name="ISMEAR">     0</i>
    <i name="SIGMA">      0.01000000</i>
    <i name="KSPACING">      0.50000000</i>
    <i type="logical" name="KGAMMA"> T  </i>
   </separator>
   <separator name="electronic projectors" >
    <i type="logical" name="LREAL"> T  </i>
    <v name="ROPT">     -0.00025000     -0.00025000     -0.00025000     -0.00025000     -0.00025000     -0.00025000</v>
    <i type="int" name="LMAXPAW">  -100</i>
    <i type="int" name="LMAXMIX">     2</i>
    <i type="logical" name="NLSPLINE"> F  </i>
   </separator>
   <separator name="electronic startup" >
    <i type="int" name="ISTART">     0</i>
    <i type="int" name="ICHARG">     2</i>
    <i type="int" name="INIWAV">     1</i>
   </separator>
   <separator name="electronic spin" >
    <i type="int" name="ISPIN">     2</i>
    <i type="logical" name="LNONCOLLINEAR"> F  </i>
    <v name="MAGMOM">      0.00000000      0.00000000      0.00000000      0.00000000      0.00000000      0.00000000      0.00000000      0.00000000      0.00000000      0.00000000      0.00000000      0.00000000      0.00000000      0.00000000      0.00000000      0.00000000      0.00000000      0.00000000      0.00000000      0.00000000
      0.00000000      0.00000000      0.00000000      0.00000000      0.00000000      0.00000000      0.00000000      0.00000000      0.00000000      0.00000000      0.00000000      0.00000000      0.00000000      0.00000000      0.00000000      0.00000000      0.00000000      0.00000000      0.00000000      0.00000000
      0.00000000      0.00000000      0.00000000      0.00000000      0.00000000      0.00000000      0.00000000      0.00000000      0.00000000      0.00000000      0.00000000      0.00000000      0.00000000      0.00000000      0.00000000</v>
    <i name="NUPDOWN">      0.00000000</i>
    <i type="logical" name="LSORBIT"> F  </i>
    <v name="SAXIS">      0.00000000      0.00000000      1.00000000</v>
    <i type="logical" name="LSPIRAL"> F  </i>
    <v name="QSPIRAL">      0.00000000      0.00000000      0.00000000</v>
    <i type="logical" name="LZEROZ"> F  </i>
   </separator>
   <separator name="electronic exchange-correlation" >
    <i type="logical" name="LASPH"> F  </i>
    <i type="logical" name="LMETAGGA"> F  </i>
   </separator>
   <separator name="electronic convergence" >
    <i type="int" name="NELM">    60</i>
    <i type="int" name="NELMDL">    -5</i>
    <i type="int" name="NELMIN">     2</i>
    <i name="ENINI">    700.00000000</i>
    <separator name="electronic convergence detail" >
     <i type="logical" name="LDIAG"> T  </i>
     <i type="logical" name="LSUBROT"> F  </i>
     <i name="WEIMIN">      0.00000000</i>
     <i name="EBREAK">      0.00000002</i>
     <i name="DEPER">      0.30000000</i>
     <i type="int" name="NRMM">     4</i>
     <i name="TIME">      0.05000000</i>
    </separator>
   </separator>
   <separator name="electronic mixer" >
    <i name="AMIX">      0.40000000</i>
    <i name="BMIX">      2.00000000</i>
    <i name="AMIN">      0.10000000</i>
    <i name="AMIX_MAG">      1.60000000</i>
    <i name="BMIX_MAG">      2.00000000</i>
    <separator name="electronic mixer details" >
     <i type="int" name="IMIX">     4</i>
     <i type="int" name="MAXMIX">   -45</i>
     <i name="WC">    100.00000000</i>
     <i type="int" name="INIMIX">     1</i>
     <i type="int" name="MIXPRE">     1</i>
     <i type="int" name="MREMOVE">     5</i>
    </separator>
   </separator>
   <separator name="electronic dipolcorrection" >
    <i type="logical" name="LDIPOL"> F  </i>
    <i type="logical" name="LMONO"> F  </i>
    <i type="int" name="IDIPOL">     0</i>
    <i name="EPSILON">      1.00000000</i>
    <v name="DIPOL">   -100.00000000   -100.00000000   -100.00000000</v>
    <i name="EFIELD">      0.00000000</i>
   </separator>
  </separator>
  <separator name="grids" >
   <i type="int" name="NGX">   180</i>
   <i type="int" name="NGY">   180</i>
   <i type="int" name="NGZ">   180</i>
   <i type="int" name="NGXF">   360</i>
   <i type="int" name="NGYF">   360</i>
   <i type="int" name="NGZF">   360</i>
   <i type="logical" name="ADDGRID"> T  </i>
  </separator>
  <separator name="ionic" >
   <i type="int" name="NSW">     0</i>
   <i type="int" name="IBRION">    -1</i>
   <i type="int" name="ISIF">     2</i>
   <i name="PSTRESS">      0.00000000</i>
   <i name="EDIFFG">     -0.01000000</i>
   <i type="int" name="NFREE">     0</i>
   <i name="POTIM">      0.50000000</i>
   <i name="SMASS">     -3.00000000</i>
   <i name="SCALEE">      1.00000000</i>
  </separator>
  <separator name="ionic md" >
   <i name="TEBEG">      0.00010000</i>
   <i name="TEEND">      0.00010000</i>
   <i type="int" name="NBLOCK">     1</i>
   <i type="int" name="KBLOCK">     1</i>
   <i type="int" name="NPACO">   256</i>
   <i name="APACO">     16.00000000</i>
  </separator>
  <separator name="symmetry" >
   <i type="int" name="ISYM">     2</i>
   <i name="SYMPREC">      0.00001000</i>
  </separator>
  <separator name="dos" >
   <i type="logical" name="LORBIT"> F  </i>
   <v name="RWIGS">     -1.00000000     -1.00000000     -1.00000000     -1.00000000     -1.00000000     -1.00000000</v>
   <i type="int" name="NEDOS">   301</i>
   <i name="EMIN">     10.00000000</i>
   <i name="EMAX">    -10.00000000</i>
   <i name="EFERMI">      0.00000000</i>
  </separator>
  <separator name="writing" >
   <i type="int" name="NWRITE">     2</i>
   <i type="logical" name="LWAVE"> T  </i>
   <i type="logical" name="LCHARG"> T  </i>
   <i type="logical" name="LPARD"> F  </i>
   <i type="logical" name="LVTOT"> F  </i>
   <i type="logical" name="LVHAR"> F  </i>
   <i type="logical" name="LELF"> F  </i>
   <i type="logical" name="LOPTICS"> F  </i>
   <v name="STM">      0.00000000      0.00000000      0.00000000      0.00000000      0.00000000      0.00000000      0.00000000</v>
  </separator>
  <separator name="performance" >
   <i type="int" name="NPAR">    64</i>
   <i type="int" name="NSIM">     4</i>
   <i type="int" name="NBLK">    -1</i>
   <i type="logical" name="LPLANE"> T  </i>
   <i type="logical" name="LSCALAPACK"> T  </i>
   <i type="logical" name="LSCAAWARE"> F  </i>
   <i type="logical" name="LSCALU"> F  </i>
   <i type="logical" name="LASYNC"> F  </i>
   <i type="logical" name="LORBITALREAL"> F  </i>
  </separator>
  <separator name="miscellaneous" >
   <i type="int" name="IDIOT">     3</i>
   <i type="logical" name="LMUSIC"> F  </i>
   <v name="POMASS">     12.01100000     12.01100000      1.00000000     14.00100000     16.00000000    101.07000000</v>
   <v name="DARWINR">      0.00000000      0.00000000      0.00000000      0.00000000      0.00000000      0.00000000</v>
   <v name="DARWINV">      1.00000000      1.00000000      1.00000000      1.00000000      1.00000000      1.00000000</v>
   <i type="logical" name="LCORR"> T  </i>
  </separator>
  <i type="logical" name="GGA_COMPAT"> T  </i>
  <i type="logical" name="LBERRY"> F  </i>
  <i type="int" name="ICORELEVEL">     2</i>
  <i type="int" name="CLNT">     1</i>
  <i type="int" name="CLN">     1</i>
  <i type="int" name="CLL">     0</i>
  <i name="CLZ">      0.50000000</i>
  <i type="logical" name="LDAU"> F  </i>
  <i type="int" name="I_CONSTRAINED_M">     0</i>
  <separator name="electronic exchange-correlation" >
   <i type="string" name="GGA">--</i>
   <i type="int" name="VOSKOWN">     0</i>
   <i type="logical" name="LHFCALC"> F  </i>
   <i type="string" name="PRECFOCK"></i>
   <i type="logical" name="LSYMGRAD"> F  </i>
   <i type="logical" name="LHFONE"> F  </i>
   <i type="logical" name="LRHFCALC"> F  </i>
   <i type="logical" name="LTHOMAS"> F  </i>
   <i type="logical" name="LMODELHF"> F  </i>
   <i name="ENCUT4O">     -1.00000000</i>
   <i type="int" name="EXXOEP">     0</i>
   <i type="int" name="FOURORBIT">     0</i>
   <i name="AEXX">      0.00000000</i>
   <i name="HFALPHA">      0.00000000</i>
   <i name="MCALPHA">      0.00000000</i>
   <i name="ALDAX">      1.00000000</i>
   <i name="AGGAX">      1.00000000</i>
   <i name="ALDAC">      1.00000000</i>
   <i name="AGGAC">      1.00000000</i>
   <i type="int" name="NKREDX">     1</i>
   <i type="int" name="NKREDY">     1</i>
   <i type="int" name="NKREDZ">     1</i>
   <i type="logical" name="SHIFTRED"> F  </i>
   <i type="logical" name="ODDONLY"> F  </i>
   <i type="logical" name="EVENONLY"> F  </i>
   <i type="int" name="LMAXFOCK">     0</i>
   <i type="int" name="NMAXFOCKAE">     0</i>
   <i type="logical" name="LFOCKAEDFT"> F  </i>
   <i name="HFSCREEN">      0.00000000</i>
   <i name="HFSCREENC">      0.00000000</i>
   <i type="int" name="NBANDSGWLOW">     0</i>
  </separator>
  <separator name="vdW DFT" >
   <i type="logical" name="LUSE_VDW"> F  </i>
   <i name="Zab_VDW">     -0.84910000</i>
   <i name="PARAM1">      0.12340000</i>
   <i name="PARAM2">      1.00000000</i>
   <i name="PARAM3">      0.00000000</i>
  </separator>
  <separator name="model GW" >
   <i type="int" name="MODEL_GW">     0</i>
   <i name="MODEL_EPS0">     87.27272727</i>
   <i name="MODEL_ALPHA">      1.00000000</i>
  </separator>
  <separator name="linear response parameters" >
   <i type="logical" name="LEPSILON"> F  </i>
   <i type="logical" name="LRPA"> F  </i>
   <i type="logical" name="LNABLA"> F  </i>
   <i type="logical" name="LVEL"> F  </i>
   <i type="int" name="KINTER">     0</i>
   <i name="CSHIFT">      0.10000000</i>
   <i name="OMEGAMAX">     -1.00000000</i>
   <i name="DEG_THRESHOLD">      0.00200000</i>
  </separator>
  <separator name="orbital magnetization" >
   <i type="logical" name="NUCIND"> F  </i>
   <v name="MAGPOS">      0.00000000      0.00000000      0.00000000</v>
   <i type="logical" name="LNICSALL"> T  </i>
   <i type="logical" name="ORBITALMAG"> F  </i>
   <i type="logical" name="LMAGBLOCH"> F  </i>
   <i type="logical" name="LCHIMAG"> F  </i>
   <i type="logical" name="LGAUGE"> T  </i>
   <i type="int" name="MAGATOM">     0</i>
   <v name="MAGDIPOL">      0.00000000      0.00000000      0.00000000</v>
   <v name="AVECCONST">      0.00000000      0.00000000      0.00000000</v>
  </separator>
  <separator name="response functions" >
   <i type="logical" name="LADDER"> F  </i>
   <i type="logical" name="LFXC"> F  </i>
   <i type="logical" name="LHARTREE"> T  </i>
   <i type="int" name="IBSE">     0</i>
   <i type="logical" name="LTCTE"> F  </i>
   <i type="logical" name="LTETE"> F  </i>
   <i type="logical" name="LTRIPLET"> F  </i>
   <i type="logical" name="LFXCEPS"> F  </i>
   <i type="logical" name="LFXHEG"> F  </i>
   <i type="logical" name="L2ORDER"> F  </i>
   <i type="logical" name="LUSEW"> F  </i>
   <i name="ENCUTGW">     -2.00000000</i>
   <i name="ENCUTGWSOFT">     -2.00000000</i>
   <i name="ENCUTLF">     -1.00000000</i>
   <i type="int" name="LMAXMP2">    -1</i>
   <i name="SCISSOR">      0.00000000</i>
   <i type="int" name="NOMEGA">     0</i>
   <i type="int" name="NOMEGAR">     0</i>
   <i type="int" name="NBANDSGW">    -1</i>
   <i type="int" name="NBANDSO">    -1</i>
   <i type="int" name="NBANDSV">    -1</i>
   <i type="int" name="NELM">     1</i>
   <i type="int" name="DIM">     3</i>
   <i type="int" name="ANTIRES">     0</i>
   <i name="OMEGAMAX">    -30.00000000</i>
   <i name="OMEGAMIN">    -30.00000000</i>
   <i name="OMEGATL">   -200.00000000</i>
   <i type="int" name="OMEGAGRID">     0</i>
   <i name="CSHIFT">     -0.10000000</i>
   <i type="logical" name="SELFENERGY"> F  </i>
   <i type="logical" name="LSPECTRAL"> F  </i>
   <i type="logical" name="ODDONLYGW"> F  </i>
   <i type="logical" name="EVENONLYGW"> F  </i>
   <i type="int" name="NKREDLFX">     1</i>
   <i type="int" name="NKREDLFY">     1</i>
   <i type="int" name="NKREDLFZ">     1</i>
   <i type="int" name="MAXMEM">  1800</i>
   <i type="int" name="TELESCOPE">     0</i>
   <i type="int" name="TAUPAR">     1</i>
  </separator>
  <separator name="External order field" >
   <i name="OFIELD_KAPPA">      0.00000000</i>
   <v name="OFIELD_K">      0.00000000      0.00000000      0.00000000</v>
   <i name="OFIELD_Q6_NEAR">      0.00000000</i>
   <i name="OFIELD_Q6_FAR">      0.00000000</i>
   <i name="OFIELD_A">      0.00000000</i>
  </separator>
 </parameters>
 <atominfo>
  <atoms>      55 </atoms>
  <types>       6 </types>
  <array name="atoms" >
   <dimension dim="1">ion</dimension>
   <field type="string">element</field>
   <field type="int">atomtype</field>
   <set>
    <rc><c>C </c><c>   1</c></rc>
    <rc><c>C </c><c>   2</c></rc>
    <rc><c>C </c><c>   2</c></rc>
    <rc><c>C </c><c>   2</c></rc>
    <rc><c>C </c><c>   2</c></rc>
    <rc><c>C </c><c>   2</c></rc>
    <rc><c>C </c><c>   2</c></rc>
    <rc><c>C </c><c>   2</c></rc>
    <rc><c>C </c><c>   2</c></rc>
    <rc><c>C </c><c>   2</c></rc>
    <rc><c>C </c><c>   2</c></rc>
    <rc><c>C </c><c>   2</c></rc>
    <rc><c>C </c><c>   2</c></rc>
    <rc><c>C </c><c>   2</c></rc>
    <rc><c>C </c><c>   2</c></rc>
    <rc><c>C </c><c>   2</c></rc>
    <rc><c>C </c><c>   2</c></rc>
    <rc><c>C </c><c>   2</c></rc>
    <rc><c>C </c><c>   2</c></rc>
    <rc><c>C </c><c>   2</c></rc>
    <rc><c>C </c><c>   2</c></rc>
    <rc><c>C </c><c>   2</c></rc>
    <rc><c>C </c><c>   2</c></rc>
    <rc><c>C </c><c>   2</c></rc>
    <rc><c>C </c><c>   2</c></rc>
    <rc><c>H </c><c>   3</c></rc>
    <rc><c>H </c><c>   3</c></rc>
    <rc><c>H </c><c>   3</c></rc>
    <rc><c>H </c><c>   3</c></rc>
    <rc><c>H </c><c>   3</c></rc>
    <rc><c>H </c><c>   3</c></rc>
    <rc><c>H </c><c>   3</c></rc>
    <rc><c>H </c><c>   3</c></rc>
    <rc><c>H </c><c>   3</c></rc>
    <rc><c>H </c><c>   3</c></rc>
    <rc><c>H </c><c>   3</c></rc>
    <rc><c>H </c><c>   3</c></rc>
    <rc><c>H </c><c>   3</c></rc>
    <rc><c>H </c><c>   3</c></rc>
    <rc><c>H </c><c>   3</c></rc>
    <rc><c>H </c><c>   3</c></rc>
    <rc><c>H </c><c>   3</c></rc>
    <rc><c>H </c><c>   3</c></rc>
    <rc><c>H </c><c>   3</c></rc>
    <rc><c>H </c><c>   3</c></rc>
    <rc><c>H </c><c>   3</c></rc>
    <rc><c>H </c><c>   3</c></rc>
    <rc><c>H </c><c>   3</c></rc>
    <rc><c>N </c><c>   4</c></rc>
    <rc><c>N </c><c>   4</c></rc>
    <rc><c>N </c><c>   4</c></rc>
    <rc><c>N </c><c>   4</c></rc>
    <rc><c>N </c><c>   4</c></rc>
    <rc><c>O </c><c>   5</c></rc>
    <rc><c>Ru</c><c>   6</c></rc>
   </set>
  </array>
  <array name="atomtypes" >
   <dimension dim="1">type</dimension>
   <field type="int">atomspertype</field>
   <field type="string">element</field>
   <field>mass</field>
   <field>valence</field>
   <field type="string">pseudopotential</field>
   <set>
    <rc><c>   1</c><c>C </c><c>     12.01100000</c><c>      4.50000000</c><c>  PAW_PBE C_h 06Feb2004                 </c></rc>
    <rc><c>  24</c><c>C </c><c>     12.01100000</c><c>      4.00000000</c><c>  PAW_PBE C_h 06Feb2004                 </c></rc>
    <rc><c>  23</c><c>H </c><c>      1.00000000</c><c>      1.00000000</c><c>  PAW_PBE H 15Jun2001                   </c></rc>
    <rc><c>   5</c><c>N </c><c>     14.00100000</c><c>      5.00000000</c><c>  PAW_PBE N_h 06Feb2004                 </c></rc>
    <rc><c>   1</c><c>O </c><c>     16.00000000</c><c>      6.00000000</c><c>  PAW_PBE O_h 06Feb2004                 </c></rc>
    <rc><c>   1</c><c>Ru</c><c>    101.07000000</c><c>     14.00000000</c><c>  PAW_PBE Ru_pv 28Jan2005               </c></rc>
   </set>
  </array>
 </atominfo>
 <structure name="initialpos" >
  <crystal>
   <varray name="basis" >
    <v>      20.00000000       0.00000000       0.00000000 </v>
    <v>       0.00000000      20.00000000       0.00000000 </v>
    <v>       0.00000000       0.00000000      20.00000000 </v>
   </varray>
   <i name="volume">   8000.00000000 </i>
   <varray name="rec_basis" >
    <v>       0.05000000       0.00000000       0.00000000 </v>
    <v>       0.00000000       0.05000000       0.00000000 </v>
    <v>       0.00000000       0.00000000       0.05000000 </v>
   </varray>
  </crystal>
  <varray name="positions" >
   <v>       0.70082162       0.56612858       0.49044049 </v>
   <v>       0.43793752       0.56561110       0.32757008 </v>
   <v>       0.45581208       0.52423376       0.38051465 </v>
   <v>       0.47372925       0.61530131       0.44986522 </v>
   <v>       0.45595175       0.65963312       0.39935201 </v>
   <v>       0.43785737       0.63472201       0.33675972 </v>
   <v>       0.52307882       0.32955005       0.67474498 </v>
   <v>       0.49710163       0.37190466       0.62618823 </v>
   <v>       0.60227374       0.41933300       0.60593616 </v>
   <v>       0.63096398       0.37761922       0.65422416 </v>
   <v>       0.73964927       0.52855915       0.53463181 </v>
   <v>       0.29334713       0.47671938       0.56830116 </v>
   <v>       0.63257913       0.55363620       0.48652424 </v>
   <v>       0.63952130       0.46927713       0.56732841 </v>
   <v>       0.70843899       0.47974495       0.57314689 </v>
   <v>       0.59134754       0.33224398       0.68903016 </v>
   <v>       0.36211554       0.48866484       0.56417415 </v>
   <v>       0.40790931       0.62211625       0.69058213 </v>
   <v>       0.47619960       0.62606623       0.67660612 </v>
   <v>       0.50295190       0.58590820       0.62668073 </v>
   <v>       0.39825425       0.53800137       0.60426081 </v>
   <v>       0.36904589       0.57756069       0.65398228 </v>
   <v>       0.37289802       0.40579857       0.48223443 </v>
   <v>       0.30486503       0.39173492       0.48443166 </v>
   <v>       0.26422003       0.42785518       0.52821594 </v>
   <v>       0.48989745       0.29510618       0.70074864 </v>
   <v>       0.61334240       0.29968355       0.72673159 </v>
   <v>       0.68424189       0.38076917       0.66478776 </v>
   <v>       0.54225374       0.36233861       0.46129841 </v>
   <v>       0.31579090       0.57306911       0.66420366 </v>
   <v>       0.44416348       0.37118871       0.61364770 </v>
   <v>       0.42392665       0.66833230       0.29622671 </v>
   <v>       0.45642762       0.71313270       0.40950260 </v>
   <v>       0.48809132       0.63358802       0.49907234 </v>
   <v>       0.56912778       0.41808713       0.41480476 </v>
   <v>       0.73767440       0.44963919       0.60776512 </v>
   <v>       0.72277620       0.60481012       0.45904817 </v>
   <v>       0.45570253       0.47012894       0.37468790 </v>
   <v>       0.40614333       0.37888556       0.44852541 </v>
   <v>       0.28443799       0.35306162       0.45202062 </v>
   <v>       0.79326502       0.53703787       0.53892527 </v>
   <v>       0.55589708       0.58769132       0.61440612 </v>
   <v>       0.42412006       0.54328620       0.27986105 </v>
   <v>       0.50894741       0.65984570       0.70400156 </v>
   <v>       0.26265982       0.50568523       0.60265428 </v>
   <v>       0.21072272       0.41813760       0.53105039 </v>
   <v>       0.60090654       0.58197914       0.45254259 </v>
   <v>       0.38544357       0.65296704       0.72941133 </v>
   <v>       0.47424490       0.54794204       0.44140236 </v>
   <v>       0.40180479       0.45306079       0.52108436 </v>
   <v>       0.53520702       0.41608490       0.59173240 </v>
   <v>       0.46544808       0.54254992       0.59041194 </v>
   <v>       0.60138410       0.50650621       0.52397638 </v>
   <v>       0.53073984       0.40562607       0.44215451 </v>
   <v>       0.50088568       0.48087016       0.51934246 </v>
  </varray>
  <varray name="selective"  type="logical" >
   <v type="logical" >  T  T  T </v>
   <v type="logical" >  T  T  T </v>
   <v type="logical" >  T  T  T </v>
   <v type="logical" >  T  T  T </v>
   <v type="logical" >  T  T  T </v>
   <v type="logical" >  T  T  T </v>
   <v type="logical" >  T  T  T </v>
   <v type="logical" >  T  T  T </v>
   <v type="logical" >  T  T  T </v>
   <v type="logical" >  T  T  T </v>
   <v type="logical" >  T  T  T </v>
   <v type="logical" >  T  T  T </v>
   <v type="logical" >  T  T  T </v>
   <v type="logical" >  T  T  T </v>
   <v type="logical" >  T  T  T </v>
   <v type="logical" >  T  T  T </v>
   <v type="logical" >  T  T  T </v>
   <v type="logical" >  T  T  T </v>
   <v type="logical" >  T  T  T </v>
   <v type="logical" >  T  T  T </v>
   <v type="logical" >  T  T  T </v>
   <v type="logical" >  T  T  T </v>
   <v type="logical" >  T  T  T </v>
   <v type="logical" >  T  T  T </v>
   <v type="logical" >  T  T  T </v>
   <v type="logical" >  T  T  T </v>
   <v type="logical" >  T  T  T </v>
   <v type="logical" >  T  T  T </v>
   <v type="logical" >  T  T  T </v>
   <v type="logical" >  T  T  T </v>
   <v type="logical" >  T  T  T </v>
   <v type="logical" >  T  T  T </v>
   <v type="logical" >  T  T  T </v>
   <v type="logical" >  T  T  T </v>
   <v type="logical" >  T  T  T </v>
   <v type="logical" >  T  T  T </v>
   <v type="logical" >  T  T  T </v>
   <v type="logical" >  T  T  T </v>
   <v type="logical" >  T  T  T </v>
   <v type="logical" >  T  T  T </v>
   <v type="logical" >  T  T  T </v>
   <v type="logical" >  T  T  T </v>
   <v type="logical" >  T  T  T </v>
   <v type="logical" >  T  T  T </v>
   <v type="logical" >  T  T  T </v>
   <v type="logical" >  T  T  T </v>
   <v type="logical" >  T  T  T </v>
   <v type="logical" >  T  T  T </v>
   <v type="logical" >  T  T  T </v>
   <v type="logical" >  T  T  T </v>
   <v type="logical" >  T  T  T </v>
   <v type="logical" >  T  T  T </v>
   <v type="logical" >  T  T  T </v>
   <v type="logical" >  T  T  T </v>
   <v type="logical" >  T  T  T </v>
  </varray>
  <nose>
   <v>      -3.00000000       0.00000000       0.00010000       0.00010000 </v>
  </nose>
 </structure>
 <calculation>
  <scstep>
   <time name="dav">   14.83   15.74</time>
   <time name="total">   22.38   23.33</time>
   <energy>
    <i name="alphaZ">     12.91687988 </i>
    <i name="ewald">  23272.88226294 </i>
    <i name="hartreedc"> -28875.18239104 </i>
    <i name="XCdc">    400.93278445 </i>
    <i name="pawpsdc">   5890.45591622 </i>
    <i name="pawaedc">  -5710.10246236 </i>
    <i name="eentropy">     -0.00100454 </i>
    <i name="bandstr">  -1676.02340328 </i>
    <i name="atom">   7593.39991119 </i>
    <i name="e_fr_energy">    909.27849346 </i>
    <i name="e_wo_entrp">    909.27949800 </i>
    <i name="e_0_energy">    909.27899573 </i>
   </energy>
  </scstep>
  <scstep>
   <time name="dav">   19.29   20.32</time>
   <time name="total">   19.31   20.34</time>
   <energy>
    <i name="e_fr_energy">    -68.87934066 </i>
    <i name="e_wo_entrp">    -68.87934066 </i>
    <i name="e_0_energy">    -68.87934066 </i>
   </energy>
  </scstep>
  <scstep>
   <time name="dav">   15.97   16.90</time>
   <time name="total">   15.99   16.92</time>
   <energy>
    <i name="e_fr_energy">   -393.45208282 </i>
    <i name="e_wo_entrp">   -393.45208282 </i>
    <i name="e_0_energy">   -393.45208282 </i>
   </energy>
  </scstep>
  <scstep>
   <time name="dav">   12.74   13.43</time>
   <time name="total">   12.75   13.44</time>
   <energy>
    <i name="e_fr_energy">   -411.99099801 </i>
    <i name="e_wo_entrp">   -411.99027487 </i>
    <i name="e_0_energy">   -411.99063644 </i>
   </energy>
  </scstep>
  <scstep>
   <time name="dav">   16.97   18.03</time>
   <time name="total">   22.19   23.25</time>
   <energy>
    <i name="e_fr_energy">   -412.24218634 </i>
    <i name="e_wo_entrp">   -412.24141037 </i>
    <i name="e_0_energy">   -412.24179835 </i>
   </energy>
  </scstep>
  <scstep>
   <time name="dav">   10.82   11.47</time>
   <time name="total">   23.43   24.13</time>
   <energy>
    <i name="e_fr_energy">   -392.71984479 </i>
    <i name="e_wo_entrp">   -392.71984479 </i>
    <i name="e_0_energy">   -392.71984479 </i>
   </energy>
  </scstep>
  <scstep>
   <time name="dav">   13.94   14.87</time>
   <time name="total">   26.65   27.61</time>
   <energy>
    <i name="e_fr_energy">   -382.65912680 </i>
    <i name="e_wo_entrp">   -382.65912680 </i>
    <i name="e_0_energy">   -382.65912680 </i>
   </energy>
  </scstep>
  <scstep>
   <time name="dav">   15.22   16.56</time>
   <time name="total">   27.93   29.43</time>
   <energy>
    <i name="e_fr_energy">   -378.71535989 </i>
    <i name="e_wo_entrp">   -378.71535989 </i>
    <i name="e_0_energy">   -378.71535989 </i>
   </energy>
  </scstep>
  <scstep>
   <time name="dav">   15.06   16.35</time>
   <time name="total">   27.83   29.15</time>
   <energy>
    <i name="e_fr_energy">   -377.67044128 </i>
    <i name="e_wo_entrp">   -377.67044128 </i>
    <i name="e_0_energy">   -377.67044128 </i>
   </energy>
  </scstep>
  <scstep>
   <time name="dav">   15.08   16.46</time>
   <time name="total">   27.77   29.40</time>
   <energy>
    <i name="e_fr_energy">   -377.63826258 </i>
    <i name="e_wo_entrp">   -377.63826258 </i>
    <i name="e_0_energy">   -377.63826258 </i>
   </energy>
  </scstep>
  <scstep>
   <time name="dav">   15.15   16.48</time>
   <time name="total">   27.97   29.32</time>
   <energy>
    <i name="e_fr_energy">   -377.50047935 </i>
    <i name="e_wo_entrp">   -377.50047935 </i>
    <i name="e_0_energy">   -377.50047935 </i>
   </energy>
  </scstep>
  <scstep>
   <time name="dav">   15.08   16.36</time>
   <time name="total">   27.94   29.27</time>
   <energy>
    <i name="e_fr_energy">   -377.42461950 </i>
    <i name="e_wo_entrp">   -377.42461950 </i>
    <i name="e_0_energy">   -377.42461950 </i>
   </energy>
  </scstep>
  <scstep>
   <time name="dav">   15.08   16.34</time>
   <time name="total">   27.85   29.15</time>
   <energy>
    <i name="e_fr_energy">   -377.40478812 </i>
    <i name="e_wo_entrp">   -377.40478812 </i>
    <i name="e_0_energy">   -377.40478812 </i>
   </energy>
  </scstep>
  <scstep>
   <time name="dav">   15.07   16.35</time>
   <time name="total">   27.85   29.30</time>
   <energy>
    <i name="e_fr_energy">   -377.39665353 </i>
    <i name="e_wo_entrp">   -377.39665353 </i>
    <i name="e_0_energy">   -377.39665353 </i>
   </energy>
  </scstep>
  <scstep>
   <time name="dav">   15.07   16.35</time>
   <time name="total">   27.86   29.20</time>
   <energy>
    <i name="e_fr_energy">   -377.39920672 </i>
    <i name="e_wo_entrp">   -377.39920672 </i>
    <i name="e_0_energy">   -377.39920672 </i>
   </energy>
  </scstep>
  <scstep>
   <time name="dav">   15.07   16.35</time>
   <time name="total">   27.85   29.26</time>
   <energy>
    <i name="e_fr_energy">   -377.41053533 </i>
    <i name="e_wo_entrp">   -377.41053533 </i>
    <i name="e_0_energy">   -377.41053533 </i>
   </energy>
  </scstep>
  <scstep>
   <time name="dav">   15.07   16.35</time>
   <time name="total">   27.86   29.20</time>
   <energy>
    <i name="e_fr_energy">   -377.41588155 </i>
    <i name="e_wo_entrp">   -377.41588155 </i>
    <i name="e_0_energy">   -377.41588155 </i>
   </energy>
  </scstep>
  <scstep>
   <time name="dav">   15.17   16.62</time>
   <time name="total">   28.02   29.53</time>
   <energy>
    <i name="e_fr_energy">   -377.42081378 </i>
    <i name="e_wo_entrp">   -377.42081378 </i>
    <i name="e_0_energy">   -377.42081378 </i>
   </energy>
  </scstep>
  <scstep>
   <time name="dav">   15.05   16.34</time>
   <time name="total">   27.88   29.23</time>
   <energy>
    <i name="e_fr_energy">   -377.42418505 </i>
    <i name="e_wo_entrp">   -377.42418505 </i>
    <i name="e_0_energy">   -377.42418505 </i>
   </energy>
  </scstep>
  <scstep>
   <time name="dav">   15.06   16.46</time>
   <time name="total">   27.88   29.31</time>
   <energy>
    <i name="e_fr_energy">   -377.42642386 </i>
    <i name="e_wo_entrp">   -377.42642386 </i>
    <i name="e_0_energy">   -377.42642386 </i>
   </energy>
  </scstep>
  <scstep>
   <time name="dav">   15.06   16.36</time>
   <time name="total">   28.10   29.42</time>
   <energy>
    <i name="e_fr_energy">   -377.42782846 </i>
    <i name="e_wo_entrp">   -377.42782846 </i>
    <i name="e_0_energy">   -377.42782846 </i>
   </energy>
  </scstep>
  <scstep>
   <time name="dav">   15.20   16.49</time>
   <time name="total">   28.05   29.37</time>
   <energy>
    <i name="e_fr_energy">   -377.42880423 </i>
    <i name="e_wo_entrp">   -377.42880423 </i>
    <i name="e_0_energy">   -377.42880423 </i>
   </energy>
  </scstep>
  <scstep>
   <time name="dav">   13.11   14.32</time>
   <time name="total">   26.13   27.45</time>
   <energy>
    <i name="e_fr_energy">   -377.42945474 </i>
    <i name="e_wo_entrp">   -377.42945474 </i>
    <i name="e_0_energy">   -377.42945474 </i>
   </energy>
  </scstep>
  <scstep>
   <time name="dav">   13.18   14.47</time>
   <time name="total">   26.15   27.48</time>
   <energy>
    <i name="e_fr_energy">   -377.42981341 </i>
    <i name="e_wo_entrp">   -377.42981341 </i>
    <i name="e_0_energy">   -377.42981341 </i>
   </energy>
  </scstep>
  <scstep>
   <time name="dav">   13.34   14.52</time>
   <time name="total">   26.20   27.42</time>
   <energy>
    <i name="e_fr_energy">   -377.43000125 </i>
    <i name="e_wo_entrp">   -377.43000125 </i>
    <i name="e_0_energy">   -377.43000125 </i>
   </energy>
  </scstep>
  <scstep>
   <time name="dav">   13.29   14.47</time>
   <time name="total">   26.20   27.41</time>
   <energy>
    <i name="e_fr_energy">   -377.43011895 </i>
    <i name="e_wo_entrp">   -377.43011895 </i>
    <i name="e_0_energy">   -377.43011895 </i>
   </energy>
  </scstep>
  <scstep>
   <time name="dav">   13.24   14.48</time>
   <time name="total">   26.09   27.35</time>
   <energy>
    <i name="e_fr_energy">   -377.43017925 </i>
    <i name="e_wo_entrp">   -377.43017925 </i>
    <i name="e_0_energy">   -377.43017925 </i>
   </energy>
  </scstep>
  <scstep>
   <time name="dav">   13.15   14.32</time>
   <time name="total">   26.13   27.36</time>
   <energy>
    <i name="e_fr_energy">   -377.43020905 </i>
    <i name="e_wo_entrp">   -377.43020905 </i>
    <i name="e_0_energy">   -377.43020905 </i>
   </energy>
  </scstep>
  <scstep>
   <time name="dav">   13.23   14.42</time>
   <time name="total">   26.18   27.41</time>
   <energy>
    <i name="e_fr_energy">   -377.43022716 </i>
    <i name="e_wo_entrp">   -377.43022716 </i>
    <i name="e_0_energy">   -377.43022716 </i>
   </energy>
  </scstep>
  <scstep>
   <time name="dav">   13.16   14.33</time>
   <time name="total">   20.72   21.90</time>
   <energy>
    <i name="alphaZ">     12.91687988 </i>
    <i name="ewald">  23272.88226294 </i>
    <i name="hartreedc"> -29116.55087803 </i>
    <i name="XCdc">    424.27589023 </i>
    <i name="pawpsdc">  81148.90821691 </i>
    <i name="pawaedc"> -80975.68346169 </i>
    <i name="eentropy">     -0.00000000 </i>
    <i name="bandstr">  -2737.57905829 </i>
    <i name="atom">   7593.39991119 </i>
    <i name="e_fr_energy">   -377.43023685 </i>
    <i name="e_wo_entrp">   -377.43023685 </i>
    <i name="e_0_energy">   -377.43023685 </i>
   </energy>
  </scstep>
  <structure>
   <crystal>
    <varray name="basis" >
     <v>      20.00000000       0.00000000       0.00000000 </v>
     <v>       0.00000000      20.00000000       0.00000000 </v>
     <v>       0.00000000       0.00000000      20.00000000 </v>
    </varray>
    <i name="volume">   8000.00000000 </i>
    <varray name="rec_basis" >
     <v>       0.05000000       0.00000000       0.00000000 </v>
     <v>       0.00000000       0.05000000       0.00000000 </v>
     <v>       0.00000000       0.00000000       0.05000000 </v>
    </varray>
   </crystal>
   <varray name="positions" >
    <v>       0.70082162       0.56612858       0.49044049 </v>
    <v>       0.43793752       0.56561110       0.32757008 </v>
    <v>       0.45581208       0.52423376       0.38051465 </v>
    <v>       0.47372925       0.61530131       0.44986522 </v>
    <v>       0.45595175       0.65963312       0.39935201 </v>
    <v>       0.43785737       0.63472201       0.33675972 </v>
    <v>       0.52307882       0.32955005       0.67474498 </v>
    <v>       0.49710163       0.37190466       0.62618823 </v>
    <v>       0.60227374       0.41933300       0.60593616 </v>
    <v>       0.63096398       0.37761922       0.65422416 </v>
    <v>       0.73964927       0.52855915       0.53463181 </v>
    <v>       0.29334713       0.47671938       0.56830116 </v>
    <v>       0.63257913       0.55363620       0.48652424 </v>
    <v>       0.63952130       0.46927713       0.56732841 </v>
    <v>       0.70843899       0.47974495       0.57314689 </v>
    <v>       0.59134754       0.33224398       0.68903016 </v>
    <v>       0.36211554       0.48866484       0.56417415 </v>
    <v>       0.40790931       0.62211625       0.69058213 </v>
    <v>       0.47619960       0.62606623       0.67660612 </v>
    <v>       0.50295190       0.58590820       0.62668073 </v>
    <v>       0.39825425       0.53800137       0.60426081 </v>
    <v>       0.36904589       0.57756069       0.65398228 </v>
    <v>       0.37289802       0.40579857       0.48223443 </v>
    <v>       0.30486503       0.39173492       0.48443166 </v>
    <v>       0.26422003       0.42785518       0.52821594 </v>
    <v>       0.48989745       0.29510618       0.70074864 </v>
    <v>       0.61334240       0.29968355       0.72673159 </v>
    <v>       0.68424189       0.38076917       0.66478776 </v>
    <v>       0.54225374       0.36233861       0.46129841 </v>
    <v>       0.31579090       0.57306911       0.66420366 </v>
    <v>       0.44416348       0.37118871       0.61364770 </v>
    <v>       0.42392665       0.66833230       0.29622671 </v>
    <v>       0.45642762       0.71313270       0.40950260 </v>
    <v>       0.48809132       0.63358802       0.49907234 </v>
    <v>       0.56912778       0.41808713       0.41480476 </v>
    <v>       0.73767440       0.44963919       0.60776512 </v>
    <v>       0.72277620       0.60481012       0.45904817 </v>
    <v>       0.45570253       0.47012894       0.37468790 </v>
    <v>       0.40614333       0.37888556       0.44852541 </v>
    <v>       0.28443799       0.35306162       0.45202062 </v>
    <v>       0.79326502       0.53703787       0.53892527 </v>
    <v>       0.55589708       0.58769132       0.61440612 </v>
    <v>       0.42412006       0.54328620       0.27986105 </v>
    <v>       0.50894741       0.65984570       0.70400156 </v>
    <v>       0.26265982       0.50568523       0.60265428 </v>
    <v>       0.21072272       0.41813760       0.53105039 </v>
    <v>       0.60090654       0.58197914       0.45254259 </v>
    <v>       0.38544357       0.65296704       0.72941133 </v>
    <v>       0.47424490       0.54794204       0.44140236 </v>
    <v>       0.40180479       0.45306079       0.52108436 </v>
    <v>       0.53520702       0.41608490       0.59173240 </v>
    <v>       0.46544808       0.54254992       0.59041194 </v>
    <v>       0.60138410       0.50650621       0.52397638 </v>
    <v>       0.53073984       0.40562607       0.44215451 </v>
    <v>       0.50088568       0.48087016       0.51934246 </v>
   </varray>
  </structure>
  <varray name="forces" >
   <v>      -0.32857714      -0.13395330       0.04719282 </v>
   <v>      -0.00477346      -0.00437683      -0.00445976 </v>
   <v>      -0.00374924      -0.03826953      -0.00405203 </v>
   <v>       0.01629914       0.02024496       0.00684340 </v>
   <v>       0.01293038       0.01775042       0.01208948 </v>
   <v>      -0.00450898      -0.00224696      -0.00579012 </v>
   <v>       0.07054694      -0.00865196       0.02655419 </v>
   <v>      -0.00756985       0.09070921      -0.08846476 </v>
   <v>       0.02781011       0.00810887      -0.00718718 </v>
   <v>       0.07176504       0.02909712      -0.00588658 </v>
   <v>      -0.47453384       0.34982541      -0.43536214 </v>
   <v>       0.01066618       0.00729855       0.00329812 </v>
   <v>       0.96438476       0.04697971       0.18054239 </v>
   <v>       0.08235785      -0.23382018       0.24680882 </v>
   <v>      -0.00664318       0.11832152      -0.11192446 </v>
   <v>       0.01169496      -0.03198598       0.03699029 </v>
   <v>       0.02487544       0.00405915      -0.00987912 </v>
   <v>       0.01535382      -0.00590293      -0.01320549 </v>
   <v>       0.01629603       0.01138212       0.00861931 </v>
   <v>      -0.03791488      -0.02377682      -0.02186980 </v>
   <v>       0.01772510      -0.00891710      -0.01351955 </v>
   <v>       0.00092733      -0.00148206      -0.00604029 </v>
   <v>       0.07372499       0.00412415      -0.01246697 </v>
   <v>      -0.02179890       0.00513671       0.01037411 </v>
   <v>       0.02454889      -0.00958208      -0.01468423 </v>
   <v>      -0.00153997      -0.01013334       0.00815824 </v>
   <v>       0.00477957      -0.00033793       0.00219471 </v>
   <v>       0.00916149      -0.02392785       0.02605336 </v>
   <v>      -0.01485839      -0.04047044      -0.02768471 </v>
   <v>       0.00088772       0.00509616      -0.00070997 </v>
   <v>       0.00127504      -0.00177161      -0.00172096 </v>
   <v>      -0.00465179       0.00579404      -0.00109002 </v>
   <v>      -0.00074062       0.00348068       0.00097293 </v>
   <v>      -0.01592573       0.01712598       0.01621842 </v>
   <v>      -0.04690452      -0.04573903      -0.05452386 </v>
   <v>       0.05209679       0.05714205      -0.04223502 </v>
   <v>      -0.44779321      -0.83134846       0.67689198 </v>
   <v>      -0.01439102      -0.00306550      -0.01139537 </v>
   <v>      -0.00815455      -0.01048730      -0.00721395 </v>
   <v>       0.00414575      -0.00609874      -0.00186569 </v>
   <v>      -0.04302478       0.12844055      -0.12757550 </v>
   <v>      -0.00204401       0.01778860       0.02395810 </v>
   <v>      -0.00696972      -0.00133080       0.00339911 </v>
   <v>      -0.00128640       0.00420670       0.00266066 </v>
   <v>       0.00110654      -0.00197284      -0.00132361 </v>
   <v>      -0.00372966      -0.00245564      -0.00141948 </v>
   <v>       0.14789402       0.07841779      -0.03505973 </v>
   <v>      -0.00026148       0.00666207       0.00600186 </v>
   <v>      -0.00271523       0.01390650      -0.01832082 </v>
   <v>      -0.07732301      -0.01696921       0.02576625 </v>
   <v>      -0.11745717       0.05202253      -0.05617670 </v>
   <v>      -0.07223339       0.08398471       0.09193105 </v>
   <v>      -0.04450033       0.31000396      -0.27826800 </v>
   <v>       0.02513479       0.05304498       0.05025742 </v>
   <v>       0.12818576      -0.05108075      -0.09240114 </v>
  </varray>
  <varray name="stress" >
   <v>      -3.10725314      -0.17602675       0.05417684 </v>
   <v>      -0.17602673      -2.88221507       0.29130355 </v>
   <v>       0.05417682       0.29130357      -2.84579341 </v>
  </varray>
  <energy>
   <i name="e_fr_energy">   -377.43023685 </i>
   <i name="e_wo_entrp">   -377.43023685 </i>
   <i name="e_0_energy">     -0.00000000 </i>
  </energy>
  <time name="totalsc"> 1007.62 1047.15</time>
  <eigenvalues>
   <array>
    <dimension dim="1">band</dimension>
    <dimension dim="2">kpoint</dimension>
    <dimension dim="3">spin</dimension>
    <field>eigene</field>
    <field>occ</field>
    <set>
     <set comment="spin 1">
      <set comment="kpoint 1">
       <r>  -49.0668    1.0000 </r>
       <r>  -48.9216    1.0000 </r>
       <r>  -48.6991    1.0000 </r>
       <r>  -29.2017    1.0000 </r>
       <r>  -27.5252    1.0000 </r>
       <r>  -26.8206    1.0000 </r>
       <r>  -26.5787    1.0000 </r>
       <r>  -26.1523    1.0000 </r>
       <r>  -26.0993    1.0000 </r>
       <r>  -24.0692    1.0000 </r>
       <r>  -23.0338    1.0000 </r>
       <r>  -22.5285    1.0000 </r>
       <r>  -22.3695    1.0000 </r>
       <r>  -22.2622    1.0000 </r>
       <r>  -22.1343    1.0000 </r>
       <r>  -22.0242    1.0000 </r>
       <r>  -21.5502    1.0000 </r>
       <r>  -21.0975    1.0000 </r>
       <r>  -20.7381    1.0000 </r>
       <r>  -19.6107    1.0000 </r>
       <r>  -19.3498    1.0000 </r>
       <r>  -18.6751    1.0000 </r>
       <r>  -18.3919    1.0000 </r>
       <r>  -18.1564    1.0000 </r>
       <r>  -17.9164    1.0000 </r>
       <r>  -17.8251    1.0000 </r>
       <r>  -17.6121    1.0000 </r>
       <r>  -17.5554    1.0000 </r>
       <r>  -17.2478    1.0000 </r>
       <r>  -16.8771    1.0000 </r>
       <r>  -16.6300    1.0000 </r>
       <r>  -15.8439    1.0000 </r>
       <r>  -15.7765    1.0000 </r>
       <r>  -15.6340    1.0000 </r>
       <r>  -15.2364    1.0000 </r>
       <r>  -14.7348    1.0000 </r>
       <r>  -14.7137    1.0000 </r>
       <r>  -14.6567    1.0000 </r>
       <r>  -14.3611    1.0000 </r>
       <r>  -14.0805    1.0000 </r>
       <r>  -14.0382    1.0000 </r>
       <r>  -13.9903    1.0000 </r>
       <r>  -13.8349    1.0000 </r>
       <r>  -13.8163    1.0000 </r>
       <r>  -13.7332    1.0000 </r>
       <r>  -13.5802    1.0000 </r>
       <r>  -13.5652    1.0000 </r>
       <r>  -13.3907    1.0000 </r>
       <r>  -13.2086    1.0000 </r>
       <r>  -13.0647    1.0000 </r>
       <r>  -12.8489    1.0000 </r>
       <r>  -12.8351    1.0000 </r>
       <r>  -12.7678    1.0000 </r>
       <r>  -12.6462    1.0000 </r>
       <r>  -12.5521    1.0000 </r>
       <r>  -12.4355    1.0000 </r>
       <r>  -12.3623    1.0000 </r>
       <r>  -12.2251    1.0000 </r>
       <r>  -12.1096    1.0000 </r>
       <r>  -12.0254    1.0000 </r>
       <r>  -11.6277    1.0000 </r>
       <r>  -11.4919    1.0000 </r>
       <r>  -11.2934    1.0000 </r>
       <r>  -11.1413    1.0000 </r>
       <r>  -11.0414    1.0000 </r>
       <r>  -10.9889    1.0000 </r>
       <r>  -10.7380    1.0000 </r>
       <r>  -10.7245    1.0000 </r>
       <r>  -10.4376    1.0000 </r>
       <r>  -10.4060    1.0000 </r>
       <r>  -10.0842    1.0000 </r>
       <r>  -10.0408    1.0000 </r>
       <r>   -9.8428    1.0000 </r>
       <r>   -9.7272    1.0000 </r>
       <r>   -9.6777    1.0000 </r>
       <r>   -9.5680    1.0000 </r>
       <r>   -9.3499    1.0000 </r>
       <r>   -9.0276    1.0000 </r>
       <r>   -8.7295    1.0000 </r>
       <r>   -8.3164    1.0000 </r>
       <r>   -7.4123    1.0000 </r>
       <r>   -7.2430    1.0000 </r>
       <r>   -7.0911    1.0000 </r>
       <r>   -5.7867    0.0000 </r>
       <r>   -5.0539    0.0000 </r>
       <r>   -4.8974    0.0000 </r>
       <r>   -4.3358    0.0000 </r>
       <r>   -4.1189    0.0000 </r>
       <r>   -4.0564    0.0000 </r>
       <r>   -3.9028    0.0000 </r>
       <r>   -3.8423    0.0000 </r>
       <r>   -3.5643    0.0000 </r>
       <r>   -3.4360    0.0000 </r>
       <r>   -3.1430    0.0000 </r>
       <r>   -2.9242    0.0000 </r>
       <r>   -2.6570    0.0000 </r>
       <r>   -1.9946    0.0000 </r>
       <r>   -1.7105    0.0000 </r>
       <r>   -1.5946    0.0000 </r>
       <r>   -1.4638    0.0000 </r>
       <r>   -1.3323    0.0000 </r>
       <r>   -1.2332    0.0000 </r>
       <r>   -1.0759    0.0000 </r>
       <r>   -1.0062    0.0000 </r>
       <r>   -0.9527    0.0000 </r>
       <r>   -0.6804    0.0000 </r>
       <r>   -0.6745    0.0000 </r>
       <r>   -0.6400    0.0000 </r>
       <r>   -0.5118    0.0000 </r>
       <r>   -0.4018    0.0000 </r>
       <r>   -0.3938    0.0000 </r>
       <r>   -0.3065    0.0000 </r>
       <r>   -0.2844    0.0000 </r>
       <r>   -0.1703    0.0000 </r>
       <r>   -0.0735    0.0000 </r>
       <r>    0.0131    0.0000 </r>
       <r>    0.0899    0.0000 </r>
       <r>    0.1845    0.0000 </r>
       <r>    0.2106    0.0000 </r>
       <r>    0.2778    0.0000 </r>
       <r>    0.3179    0.0000 </r>
       <r>    0.3784    0.0000 </r>
       <r>    0.4251    0.0000 </r>
       <r>    0.4863    0.0000 </r>
       <r>    0.5545    0.0000 </r>
       <r>    0.6234    0.0000 </r>
       <r>    0.6417    0.0000 </r>
       <r>    0.6901    0.0000 </r>
      </set>
     </set>
     <set comment="spin 2">
      <set comment="kpoint 1">
       <r>  -49.0668    1.0000 </r>
       <r>  -48.9216    1.0000 </r>
       <r>  -48.6991    1.0000 </r>
       <r>  -29.2017    1.0000 </r>
       <r>  -27.5252    1.0000 </r>
       <r>  -26.8206    1.0000 </r>
       <r>  -26.5787    1.0000 </r>
       <r>  -26.1523    1.0000 </r>
       <r>  -26.0993    1.0000 </r>
       <r>  -24.0692    1.0000 </r>
       <r>  -23.0338    1.0000 </r>
       <r>  -22.5285    1.0000 </r>
       <r>  -22.3695    1.0000 </r>
       <r>  -22.2622    1.0000 </r>
       <r>  -22.1343    1.0000 </r>
       <r>  -22.0242    1.0000 </r>
       <r>  -21.5502    1.0000 </r>
       <r>  -21.0975    1.0000 </r>
       <r>  -20.7381    1.0000 </r>
       <r>  -19.6107    1.0000 </r>
       <r>  -19.3498    1.0000 </r>
       <r>  -18.6751    1.0000 </r>
       <r>  -18.3919    1.0000 </r>
       <r>  -18.1564    1.0000 </r>
       <r>  -17.9164    1.0000 </r>
       <r>  -17.8251    1.0000 </r>
       <r>  -17.6121    1.0000 </r>
       <r>  -17.5554    1.0000 </r>
       <r>  -17.2478    1.0000 </r>
       <r>  -16.8771    1.0000 </r>
       <r>  -16.6300    1.0000 </r>
       <r>  -15.8439    1.0000 </r>
       <r>  -15.7765    1.0000 </r>
       <r>  -15.6340    1.0000 </r>
       <r>  -15.2364    1.0000 </r>
       <r>  -14.7348    1.0000 </r>
       <r>  -14.7137    1.0000 </r>
       <r>  -14.6567    1.0000 </r>
       <r>  -14.3611    1.0000 </r>
       <r>  -14.0805    1.0000 </r>
       <r>  -14.0382    1.0000 </r>
       <r>  -13.9903    1.0000 </r>
       <r>  -13.8349    1.0000 </r>
       <r>  -13.8163    1.0000 </r>
       <r>  -13.7332    1.0000 </r>
       <r>  -13.5802    1.0000 </r>
       <r>  -13.5652    1.0000 </r>
       <r>  -13.3907    1.0000 </r>
       <r>  -13.2086    1.0000 </r>
       <r>  -13.0647    1.0000 </r>
       <r>  -12.8489    1.0000 </r>
       <r>  -12.8351    1.0000 </r>
       <r>  -12.7678    1.0000 </r>
       <r>  -12.6462    1.0000 </r>
       <r>  -12.5521    1.0000 </r>
       <r>  -12.4355    1.0000 </r>
       <r>  -12.3623    1.0000 </r>
       <r>  -12.2251    1.0000 </r>
       <r>  -12.1096    1.0000 </r>
       <r>  -12.0254    1.0000 </r>
       <r>  -11.6277    1.0000 </r>
       <r>  -11.4919    1.0000 </r>
       <r>  -11.2934    1.0000 </r>
       <r>  -11.1413    1.0000 </r>
       <r>  -11.0414    1.0000 </r>
       <r>  -10.9889    1.0000 </r>
       <r>  -10.7380    1.0000 </r>
       <r>  -10.7245    1.0000 </r>
       <r>  -10.4376    1.0000 </r>
       <r>  -10.4060    1.0000 </r>
       <r>  -10.0842    1.0000 </r>
       <r>  -10.0408    1.0000 </r>
       <r>   -9.8428    1.0000 </r>
       <r>   -9.7272    1.0000 </r>
       <r>   -9.6777    1.0000 </r>
       <r>   -9.5680    1.0000 </r>
       <r>   -9.3499    1.0000 </r>
       <r>   -9.0276    1.0000 </r>
       <r>   -8.7295    1.0000 </r>
       <r>   -8.3164    1.0000 </r>
       <r>   -7.4123    1.0000 </r>
       <r>   -7.2430    1.0000 </r>
       <r>   -7.0911    1.0000 </r>
       <r>   -5.7867    0.0000 </r>
       <r>   -5.0539    0.0000 </r>
       <r>   -4.8974    0.0000 </r>
       <r>   -4.3358    0.0000 </r>
       <r>   -4.1189    0.0000 </r>
       <r>   -4.0564    0.0000 </r>
       <r>   -3.9028    0.0000 </r>
       <r>   -3.8423    0.0000 </r>
       <r>   -3.5643    0.0000 </r>
       <r>   -3.4360    0.0000 </r>
       <r>   -3.1430    0.0000 </r>
       <r>   -2.9242    0.0000 </r>
       <r>   -2.6570    0.0000 </r>
       <r>   -1.9946    0.0000 </r>
       <r>   -1.7105    0.0000 </r>
       <r>   -1.5946    0.0000 </r>
       <r>   -1.4638    0.0000 </r>
       <r>   -1.3323    0.0000 </r>
       <r>   -1.2332    0.0000 </r>
       <r>   -1.0759    0.0000 </r>
       <r>   -1.0062    0.0000 </r>
       <r>   -0.9527    0.0000 </r>
       <r>   -0.6804    0.0000 </r>
       <r>   -0.6745    0.0000 </r>
       <r>   -0.6400    0.0000 </r>
       <r>   -0.5118    0.0000 </r>
       <r>   -0.4018    0.0000 </r>
       <r>   -0.3938    0.0000 </r>
       <r>   -0.3065    0.0000 </r>
       <r>   -0.2844    0.0000 </r>
       <r>   -0.1703    0.0000 </r>
       <r>   -0.0735    0.0000 </r>
       <r>    0.0131    0.0000 </r>
       <r>    0.0899    0.0000 </r>
       <r>    0.1845    0.0000 </r>
       <r>    0.2106    0.0000 </r>
       <r>    0.2778    0.0000 </r>
       <r>    0.3179    0.0000 </r>
       <r>    0.3783    0.0000 </r>
       <r>    0.4251    0.0000 </r>
       <r>    0.4863    0.0000 </r>
       <r>    0.5545    0.0000 </r>
       <r>    0.6233    0.0000 </r>
       <r>    0.6417    0.0000 </r>
       <r>    0.6901    0.0000 </r>
      </set>
     </set>
    </set>
   </array>
  </eigenvalues>
  <separator name="orbital magnetization" >
   <v name="MAGDIPOLOUT">      0.00000000      0.00000000      0.00000000</v>
  </separator>
  <dos>
   <i name="efermi">     -6.99318924 </i>
   <total>
    <array>
     <dimension dim="1">gridpoints</dimension>
     <dimension dim="2">spin</dimension>
     <field>energy</field>
     <field>total</field>
     <field>integrated</field>
     <set>
      <set comment="spin 1">
       <r>   -51.5547     0.0000     0.0000 </r>
       <r>   -51.3723     0.0000     0.0000 </r>
       <r>   -51.1898     0.0000     0.0000 </r>
       <r>   -51.0074     0.0000     0.0000 </r>
       <r>   -50.8249     0.0000     0.0000 </r>
       <r>   -50.6425     0.0000     0.0000 </r>
       <r>   -50.4600     0.0000     0.0000 </r>
       <r>   -50.2776     0.0000     0.0000 </r>
       <r>   -50.0952     0.0000     0.0000 </r>
       <r>   -49.9127     0.0000     0.0000 </r>
       <r>   -49.7303     0.0000     0.0000 </r>
       <r>   -49.5478     0.0000     0.0000 </r>
       <r>   -49.3654     0.0000     0.0000 </r>
       <r>   -49.1829     0.0000     0.0000 </r>
       <r>   -49.0005    10.9624     2.0000 </r>
       <r>   -48.8181     0.0000     4.0000 </r>
       <r>   -48.6356    10.9624     6.0000 </r>
       <r>   -48.4532     0.0000     6.0000 </r>
       <r>   -48.2707     0.0000     6.0000 </r>
       <r>   -48.0883     0.0000     6.0000 </r>
       <r>   -47.9059     0.0000     6.0000 </r>
       <r>   -47.7234     0.0000     6.0000 </r>
       <r>   -47.5410     0.0000     6.0000 </r>
       <r>   -47.3585     0.0000     6.0000 </r>
       <r>   -47.1761     0.0000     6.0000 </r>
       <r>   -46.9936     0.0000     6.0000 </r>
       <r>   -46.8112     0.0000     6.0000 </r>
       <r>   -46.6288     0.0000     6.0000 </r>
       <r>   -46.4463     0.0000     6.0000 </r>
       <r>   -46.2639     0.0000     6.0000 </r>
       <r>   -46.0814     0.0000     6.0000 </r>
       <r>   -45.8990     0.0000     6.0000 </r>
       <r>   -45.7165     0.0000     6.0000 </r>
       <r>   -45.5341     0.0000     6.0000 </r>
       <r>   -45.3517     0.0000     6.0000 </r>
       <r>   -45.1692     0.0000     6.0000 </r>
       <r>   -44.9868     0.0000     6.0000 </r>
       <r>   -44.8043     0.0000     6.0000 </r>
       <r>   -44.6219     0.0000     6.0000 </r>
       <r>   -44.4395     0.0000     6.0000 </r>
       <r>   -44.2570     0.0000     6.0000 </r>
       <r>   -44.0746     0.0000     6.0000 </r>
       <r>   -43.8921     0.0000     6.0000 </r>
       <r>   -43.7097     0.0000     6.0000 </r>
       <r>   -43.5272     0.0000     6.0000 </r>
       <r>   -43.3448     0.0000     6.0000 </r>
       <r>   -43.1624     0.0000     6.0000 </r>
       <r>   -42.9799     0.0000     6.0000 </r>
       <r>   -42.7975     0.0000     6.0000 </r>
       <r>   -42.6150     0.0000     6.0000 </r>
       <r>   -42.4326     0.0000     6.0000 </r>
       <r>   -42.2501     0.0000     6.0000 </r>
       <r>   -42.0677     0.0000     6.0000 </r>
       <r>   -41.8853     0.0000     6.0000 </r>
       <r>   -41.7028     0.0000     6.0000 </r>
       <r>   -41.5204     0.0000     6.0000 </r>
       <r>   -41.3379     0.0000     6.0000 </r>
       <r>   -41.1555     0.0000     6.0000 </r>
       <r>   -40.9730     0.0000     6.0000 </r>
       <r>   -40.7906     0.0000     6.0000 </r>
       <r>   -40.6082     0.0000     6.0000 </r>
       <r>   -40.4257     0.0000     6.0000 </r>
       <r>   -40.2433     0.0000     6.0000 </r>
       <r>   -40.0608     0.0000     6.0000 </r>
       <r>   -39.8784     0.0000     6.0000 </r>
       <r>   -39.6960     0.0000     6.0000 </r>
       <r>   -39.5135     0.0000     6.0000 </r>
       <r>   -39.3311     0.0000     6.0000 </r>
       <r>   -39.1486     0.0000     6.0000 </r>
       <r>   -38.9662     0.0000     6.0000 </r>
       <r>   -38.7837     0.0000     6.0000 </r>
       <r>   -38.6013     0.0000     6.0000 </r>
       <r>   -38.4189     0.0000     6.0000 </r>
       <r>   -38.2364     0.0000     6.0000 </r>
       <r>   -38.0540     0.0000     6.0000 </r>
       <r>   -37.8715     0.0000     6.0000 </r>
       <r>   -37.6891     0.0000     6.0000 </r>
       <r>   -37.5066     0.0000     6.0000 </r>
       <r>   -37.3242     0.0000     6.0000 </r>
       <r>   -37.1418     0.0000     6.0000 </r>
       <r>   -36.9593     0.0000     6.0000 </r>
       <r>   -36.7769     0.0000     6.0000 </r>
       <r>   -36.5944     0.0000     6.0000 </r>
       <r>   -36.4120     0.0000     6.0000 </r>
       <r>   -36.2296     0.0000     6.0000 </r>
       <r>   -36.0471     0.0000     6.0000 </r>
       <r>   -35.8647     0.0000     6.0000 </r>
       <r>   -35.6822     0.0000     6.0000 </r>
       <r>   -35.4998     0.0000     6.0000 </r>
       <r>   -35.3173     0.0000     6.0000 </r>
       <r>   -35.1349     0.0000     6.0000 </r>
       <r>   -34.9525     0.0000     6.0000 </r>
       <r>   -34.7700     0.0000     6.0000 </r>
       <r>   -34.5876     0.0000     6.0000 </r>
       <r>   -34.4051     0.0000     6.0000 </r>
       <r>   -34.2227     0.0000     6.0000 </r>
       <r>   -34.0402     0.0000     6.0000 </r>
       <r>   -33.8578     0.0000     6.0000 </r>
       <r>   -33.6754     0.0000     6.0000 </r>
       <r>   -33.4929     0.0000     6.0000 </r>
       <r>   -33.3105     0.0000     6.0000 </r>
       <r>   -33.1280     0.0000     6.0000 </r>
       <r>   -32.9456     0.0000     6.0000 </r>
       <r>   -32.7632     0.0000     6.0000 </r>
       <r>   -32.5807     0.0000     6.0000 </r>
       <r>   -32.3983     0.0000     6.0000 </r>
       <r>   -32.2158     0.0000     6.0000 </r>
       <r>   -32.0334     0.0000     6.0000 </r>
       <r>   -31.8509     0.0000     6.0000 </r>
       <r>   -31.6685     0.0000     6.0000 </r>
       <r>   -31.4861     0.0000     6.0000 </r>
       <r>   -31.3036     0.0000     6.0000 </r>
       <r>   -31.1212     0.0000     6.0000 </r>
       <r>   -30.9387     0.0000     6.0000 </r>
       <r>   -30.7563     0.0000     6.0000 </r>
       <r>   -30.5738     0.0000     6.0000 </r>
       <r>   -30.3914     0.0000     6.0000 </r>
       <r>   -30.2090     0.0000     6.0000 </r>
       <r>   -30.0265     0.0000     6.0000 </r>
       <r>   -29.8441     0.0000     6.0000 </r>
       <r>   -29.6616     0.0000     6.0000 </r>
       <r>   -29.4792     0.0000     6.0000 </r>
       <r>   -29.2967     0.0000     6.0000 </r>
       <r>   -29.1143     0.0000     8.0000 </r>
       <r>   -28.9319     0.0000     8.0000 </r>
       <r>   -28.7494     0.0000     8.0000 </r>
       <r>   -28.5670     0.0000     8.0000 </r>
       <r>   -28.3845     0.0000     8.0000 </r>
       <r>   -28.2021     0.0000     8.0000 </r>
       <r>   -28.0197     0.0000     8.0000 </r>
       <r>   -27.8372     0.0000     8.0000 </r>
       <r>   -27.6548     0.0000     8.0000 </r>
       <r>   -27.4723    10.9624    10.0000 </r>
       <r>   -27.2899     0.0000    10.0000 </r>
       <r>   -27.1074     0.0000    10.0000 </r>
       <r>   -26.9250     0.0000    10.0000 </r>
       <r>   -26.7426    10.9624    12.0000 </r>
       <r>   -26.5601    10.9158    13.9915 </r>
       <r>   -26.3777     0.0000    14.0000 </r>
       <r>   -26.1952     0.0000    14.0000 </r>
       <r>   -26.0128     0.0000    18.0000 </r>
       <r>   -25.8303     0.0000    18.0000 </r>
       <r>   -25.6479     0.0000    18.0000 </r>
       <r>   -25.4655     0.0000    18.0000 </r>
       <r>   -25.2830     0.0000    18.0000 </r>
       <r>   -25.1006     0.0000    18.0000 </r>
       <r>   -24.9181     0.0000    18.0000 </r>
       <r>   -24.7357     0.0000    18.0000 </r>
       <r>   -24.5533     0.0000    18.0000 </r>
       <r>   -24.3708     0.0000    18.0000 </r>
       <r>   -24.1884     0.0000    18.0000 </r>
       <r>   -24.0059    10.9624    20.0000 </r>
       <r>   -23.8235     0.0000    20.0000 </r>
       <r>   -23.6410     0.0000    20.0000 </r>
       <r>   -23.4586     0.0000    20.0000 </r>
       <r>   -23.2762     0.0000    20.0000 </r>
       <r>   -23.0937     0.0000    20.0000 </r>
       <r>   -22.9113     0.0000    22.0000 </r>
       <r>   -22.7288     0.0000    22.0000 </r>
       <r>   -22.5464     0.0621    22.0113 </r>
       <r>   -22.3639     8.5988    25.5688 </r>
       <r>   -22.1815     0.0000    28.0000 </r>
       <r>   -21.9991    10.9603    31.9996 </r>
       <r>   -21.8166     0.0000    32.0000 </r>
       <r>   -21.6342     0.0000    32.0000 </r>
       <r>   -21.4517     0.0000    34.0000 </r>
       <r>   -21.2693     0.0000    34.0000 </r>
       <r>   -21.0868    10.2368    35.8676 </r>
       <r>   -20.9044     0.0000    36.0000 </r>
       <r>   -20.7220    10.8396    37.9776 </r>
       <r>   -20.5395     0.0000    38.0000 </r>
       <r>   -20.3571     0.0000    38.0000 </r>
       <r>   -20.1746     0.0000    38.0000 </r>
       <r>   -19.9922     0.0000    38.0000 </r>
       <r>   -19.8098     0.0000    38.0000 </r>
       <r>   -19.6273     0.1014    38.0185 </r>
       <r>   -19.4449     0.0000    40.0000 </r>
       <r>   -19.2624     0.0000    42.0000 </r>
       <r>   -19.0800     0.0000    42.0000 </r>
       <r>   -18.8975     0.0000    42.0000 </r>
       <r>   -18.7151     0.0000    42.0000 </r>
       <r>   -18.5327     0.0000    44.0000 </r>
       <r>   -18.3502    10.9624    46.0000 </r>
       <r>   -18.1678     0.5830    46.1064 </r>
       <r>   -17.9853     0.0000    48.0000 </r>
       <r>   -17.8029    10.9532    51.9983 </r>
       <r>   -17.6204     1.3080    52.2386 </r>
       <r>   -17.4380     0.0000    56.0000 </r>
       <r>   -17.2556     1.4922    56.2722 </r>
       <r>   -17.0731     0.0000    58.0000 </r>
       <r>   -16.8907     0.3015    58.0550 </r>
       <r>   -16.7082     0.0000    60.0000 </r>
       <r>   -16.5258     0.0000    62.0000 </r>
       <r>   -16.3434     0.0000    62.0000 </r>
       <r>   -16.1609     0.0000    62.0000 </r>
       <r>   -15.9785     0.0000    62.0000 </r>
       <r>   -15.7960    10.9945    64.0059 </r>
       <r>   -15.6136    10.9412    67.9961 </r>
       <r>   -15.4311     0.0000    68.0000 </r>
       <r>   -15.2487     0.4548    68.0830 </r>
       <r>   -15.0663     0.0000    70.0000 </r>
       <r>   -14.8838     0.0000    70.0000 </r>
       <r>   -14.7014    21.4802    73.9189 </r>
       <r>   -14.5189     0.0000    76.0000 </r>
       <r>   -14.3365    10.9596    77.9995 </r>
       <r>   -14.1540     0.0000    78.0000 </r>
       <r>   -13.9716    21.8793    83.9917 </r>
       <r>   -13.7892    21.9241    87.9999 </r>
       <r>   -13.6067     0.0009    90.0002 </r>
       <r>   -13.4243     0.0000    94.0000 </r>
       <r>   -13.2418     0.0000    96.0000 </r>
       <r>   -13.0594     8.4773    99.5466 </r>
       <r>   -12.8770     0.0004   100.0001 </r>
       <r>   -12.6945    10.9624   106.0000 </r>
       <r>   -12.5121    10.9624   110.0000 </r>
       <r>   -12.3296    10.9624   114.0000 </r>
       <r>   -12.1472    10.9624   116.0000 </r>
       <r>   -11.9647    10.9624   120.0000 </r>
       <r>   -11.7823     0.0000   120.0000 </r>
       <r>   -11.5999    10.9619   121.9999 </r>
       <r>   -11.4174    10.9624   124.0000 </r>
       <r>   -11.2350    10.9624   126.0000 </r>
       <r>   -11.0525     0.6315   128.1152 </r>
       <r>   -10.8701     0.0000   132.0000 </r>
       <r>   -10.6876    21.9248   136.0000 </r>
       <r>   -10.5052     0.0000   136.0000 </r>
       <r>   -10.3228     0.0000   140.0000 </r>
       <r>   -10.1403     0.0000   140.0000 </r>
       <r>    -9.9579     0.0000   144.0000 </r>
       <r>    -9.7754    10.9624   146.0000 </r>
       <r>    -9.5930     0.0022   150.0004 </r>
       <r>    -9.4105     0.0000   152.0000 </r>
       <r>    -9.2281     0.0000   154.0000 </r>
       <r>    -9.0457     0.0571   154.0104 </r>
       <r>    -8.8632     0.0000   156.0000 </r>
       <r>    -8.6808    10.9624   158.0000 </r>
       <r>    -8.4983     0.0000   158.0000 </r>
       <r>    -8.3159     5.8183   159.0615 </r>
       <r>    -8.1335     0.0000   160.0000 </r>
       <r>    -7.9510     0.0000   160.0000 </r>
       <r>    -7.7686     0.0000   160.0000 </r>
       <r>    -7.5861     0.0000   160.0000 </r>
       <r>    -7.4037     9.7411   161.7772 </r>
       <r>    -7.2212    10.9512   163.9980 </r>
       <r>    -7.0388    10.9624   166.0000 </r>
       <r>    -6.8564     0.0000   166.0000 </r>
       <r>    -6.6739     0.0000   166.0000 </r>
       <r>    -6.4915     0.0000   166.0000 </r>
       <r>    -6.3090     0.0000   166.0000 </r>
       <r>    -6.1266     0.0000   166.0000 </r>
       <r>    -5.9441     0.0000   166.0000 </r>
       <r>    -5.7617    10.9602   167.9996 </r>
       <r>    -5.5793     0.0000   168.0000 </r>
       <r>    -5.3968     0.0000   168.0000 </r>
       <r>    -5.2144     0.0000   168.0000 </r>
       <r>    -5.0319    10.9521   169.9981 </r>
       <r>    -4.8495    10.9624   172.0000 </r>
       <r>    -4.6671     0.0000   172.0000 </r>
       <r>    -4.4846     0.0000   172.0000 </r>
       <r>    -4.3022    10.9624   174.0000 </r>
       <r>    -4.1197     4.9452   174.9022 </r>
       <r>    -3.9373     0.0000   178.0000 </r>
       <r>    -3.7548     0.0000   182.0000 </r>
       <r>    -3.5724     1.3795   182.2517 </r>
       <r>    -3.3900    10.9624   186.0000 </r>
       <r>    -3.2075     0.0000   186.0000 </r>
       <r>    -3.0251     0.0000   188.0000 </r>
       <r>    -2.8426     0.0000   190.0000 </r>
       <r>    -2.6602     3.5616   190.6498 </r>
       <r>    -2.4777     0.0000   192.0000 </r>
       <r>    -2.2953     0.0000   192.0000 </r>
       <r>    -2.1129     0.0000   192.0000 </r>
       <r>    -1.9304    10.9624   194.0000 </r>
       <r>    -1.7480     0.0000   194.0000 </r>
       <r>    -1.5655    10.9622   198.0000 </r>
       <r>    -1.3831     0.0000   200.0000 </r>
       <r>    -1.2006    10.9624   204.0000 </r>
       <r>    -1.0182    11.4523   206.0894 </r>
       <r>    -0.8358     0.0000   210.0000 </r>
       <r>    -0.6533    22.2354   214.0567 </r>
       <r>    -0.4709    10.9624   218.0000 </r>
       <r>    -0.2884    14.0376   224.5610 </r>
       <r>    -0.1060    10.9624   228.0000 </r>
       <r>     0.0764    11.2726   232.0566 </r>
       <r>     0.2589    21.9654   238.0074 </r>
       <r>     0.4413    21.8066   245.9784 </r>
       <r>     0.6238    16.7611   251.0579 </r>
       <r>     0.8062     0.0000   256.0000 </r>
       <r>     0.9887     0.0000   256.0000 </r>
       <r>     1.1711     0.0000   256.0000 </r>
       <r>     1.3535     0.0000   256.0000 </r>
       <r>     1.5360     0.0000   256.0000 </r>
       <r>     1.7184     0.0000   256.0000 </r>
       <r>     1.9009     0.0000   256.0000 </r>
       <r>     2.0833     0.0000   256.0000 </r>
       <r>     2.2658     0.0000   256.0000 </r>
       <r>     2.4482     0.0000   256.0000 </r>
       <r>     2.6306     0.0000   256.0000 </r>
       <r>     2.8131     0.0000   256.0000 </r>
       <r>     2.9955     0.0000   256.0000 </r>
       <r>     3.1780     0.0000   256.0000 </r>
      </set>
      <set comment="spin 2">
       <r>   -51.5547     0.0000     0.0000 </r>
       <r>   -51.3723     0.0000     0.0000 </r>
       <r>   -51.1898     0.0000     0.0000 </r>
       <r>   -51.0074     0.0000     0.0000 </r>
       <r>   -50.8249     0.0000     0.0000 </r>
       <r>   -50.6425     0.0000     0.0000 </r>
       <r>   -50.4600     0.0000     0.0000 </r>
       <r>   -50.2776     0.0000     0.0000 </r>
       <r>   -50.0952     0.0000     0.0000 </r>
       <r>   -49.9127     0.0000     0.0000 </r>
       <r>   -49.7303     0.0000     0.0000 </r>
       <r>   -49.5478     0.0000     0.0000 </r>
       <r>   -49.3654     0.0000     0.0000 </r>
       <r>   -49.1829     0.0000     0.0000 </r>
       <r>   -49.0005    10.9624     2.0000 </r>
       <r>   -48.8181     0.0000     4.0000 </r>
       <r>   -48.6356    10.9624     6.0000 </r>
       <r>   -48.4532     0.0000     6.0000 </r>
       <r>   -48.2707     0.0000     6.0000 </r>
       <r>   -48.0883     0.0000     6.0000 </r>
       <r>   -47.9059     0.0000     6.0000 </r>
       <r>   -47.7234     0.0000     6.0000 </r>
       <r>   -47.5410     0.0000     6.0000 </r>
       <r>   -47.3585     0.0000     6.0000 </r>
       <r>   -47.1761     0.0000     6.0000 </r>
       <r>   -46.9936     0.0000     6.0000 </r>
       <r>   -46.8112     0.0000     6.0000 </r>
       <r>   -46.6288     0.0000     6.0000 </r>
       <r>   -46.4463     0.0000     6.0000 </r>
       <r>   -46.2639     0.0000     6.0000 </r>
       <r>   -46.0814     0.0000     6.0000 </r>
       <r>   -45.8990     0.0000     6.0000 </r>
       <r>   -45.7165     0.0000     6.0000 </r>
       <r>   -45.5341     0.0000     6.0000 </r>
       <r>   -45.3517     0.0000     6.0000 </r>
       <r>   -45.1692     0.0000     6.0000 </r>
       <r>   -44.9868     0.0000     6.0000 </r>
       <r>   -44.8043     0.0000     6.0000 </r>
       <r>   -44.6219     0.0000     6.0000 </r>
       <r>   -44.4395     0.0000     6.0000 </r>
       <r>   -44.2570     0.0000     6.0000 </r>
       <r>   -44.0746     0.0000     6.0000 </r>
       <r>   -43.8921     0.0000     6.0000 </r>
       <r>   -43.7097     0.0000     6.0000 </r>
       <r>   -43.5272     0.0000     6.0000 </r>
       <r>   -43.3448     0.0000     6.0000 </r>
       <r>   -43.1624     0.0000     6.0000 </r>
       <r>   -42.9799     0.0000     6.0000 </r>
       <r>   -42.7975     0.0000     6.0000 </r>
       <r>   -42.6150     0.0000     6.0000 </r>
       <r>   -42.4326     0.0000     6.0000 </r>
       <r>   -42.2501     0.0000     6.0000 </r>
       <r>   -42.0677     0.0000     6.0000 </r>
       <r>   -41.8853     0.0000     6.0000 </r>
       <r>   -41.7028     0.0000     6.0000 </r>
       <r>   -41.5204     0.0000     6.0000 </r>
       <r>   -41.3379     0.0000     6.0000 </r>
       <r>   -41.1555     0.0000     6.0000 </r>
       <r>   -40.9730     0.0000     6.0000 </r>
       <r>   -40.7906     0.0000     6.0000 </r>
       <r>   -40.6082     0.0000     6.0000 </r>
       <r>   -40.4257     0.0000     6.0000 </r>
       <r>   -40.2433     0.0000     6.0000 </r>
       <r>   -40.0608     0.0000     6.0000 </r>
       <r>   -39.8784     0.0000     6.0000 </r>
       <r>   -39.6960     0.0000     6.0000 </r>
       <r>   -39.5135     0.0000     6.0000 </r>
       <r>   -39.3311     0.0000     6.0000 </r>
       <r>   -39.1486     0.0000     6.0000 </r>
       <r>   -38.9662     0.0000     6.0000 </r>
       <r>   -38.7837     0.0000     6.0000 </r>
       <r>   -38.6013     0.0000     6.0000 </r>
       <r>   -38.4189     0.0000     6.0000 </r>
       <r>   -38.2364     0.0000     6.0000 </r>
       <r>   -38.0540     0.0000     6.0000 </r>
       <r>   -37.8715     0.0000     6.0000 </r>
       <r>   -37.6891     0.0000     6.0000 </r>
       <r>   -37.5066     0.0000     6.0000 </r>
       <r>   -37.3242     0.0000     6.0000 </r>
       <r>   -37.1418     0.0000     6.0000 </r>
       <r>   -36.9593     0.0000     6.0000 </r>
       <r>   -36.7769     0.0000     6.0000 </r>
       <r>   -36.5944     0.0000     6.0000 </r>
       <r>   -36.4120     0.0000     6.0000 </r>
       <r>   -36.2296     0.0000     6.0000 </r>
       <r>   -36.0471     0.0000     6.0000 </r>
       <r>   -35.8647     0.0000     6.0000 </r>
       <r>   -35.6822     0.0000     6.0000 </r>
       <r>   -35.4998     0.0000     6.0000 </r>
       <r>   -35.3173     0.0000     6.0000 </r>
       <r>   -35.1349     0.0000     6.0000 </r>
       <r>   -34.9525     0.0000     6.0000 </r>
       <r>   -34.7700     0.0000     6.0000 </r>
       <r>   -34.5876     0.0000     6.0000 </r>
       <r>   -34.4051     0.0000     6.0000 </r>
       <r>   -34.2227     0.0000     6.0000 </r>
       <r>   -34.0402     0.0000     6.0000 </r>
       <r>   -33.8578     0.0000     6.0000 </r>
       <r>   -33.6754     0.0000     6.0000 </r>
       <r>   -33.4929     0.0000     6.0000 </r>
       <r>   -33.3105     0.0000     6.0000 </r>
       <r>   -33.1280     0.0000     6.0000 </r>
       <r>   -32.9456     0.0000     6.0000 </r>
       <r>   -32.7632     0.0000     6.0000 </r>
       <r>   -32.5807     0.0000     6.0000 </r>
       <r>   -32.3983     0.0000     6.0000 </r>
       <r>   -32.2158     0.0000     6.0000 </r>
       <r>   -32.0334     0.0000     6.0000 </r>
       <r>   -31.8509     0.0000     6.0000 </r>
       <r>   -31.6685     0.0000     6.0000 </r>
       <r>   -31.4861     0.0000     6.0000 </r>
       <r>   -31.3036     0.0000     6.0000 </r>
       <r>   -31.1212     0.0000     6.0000 </r>
       <r>   -30.9387     0.0000     6.0000 </r>
       <r>   -30.7563     0.0000     6.0000 </r>
       <r>   -30.5738     0.0000     6.0000 </r>
       <r>   -30.3914     0.0000     6.0000 </r>
       <r>   -30.2090     0.0000     6.0000 </r>
       <r>   -30.0265     0.0000     6.0000 </r>
       <r>   -29.8441     0.0000     6.0000 </r>
       <r>   -29.6616     0.0000     6.0000 </r>
       <r>   -29.4792     0.0000     6.0000 </r>
       <r>   -29.2967     0.0000     6.0000 </r>
       <r>   -29.1143     0.0000     8.0000 </r>
       <r>   -28.9319     0.0000     8.0000 </r>
       <r>   -28.7494     0.0000     8.0000 </r>
       <r>   -28.5670     0.0000     8.0000 </r>
       <r>   -28.3845     0.0000     8.0000 </r>
       <r>   -28.2021     0.0000     8.0000 </r>
       <r>   -28.0197     0.0000     8.0000 </r>
       <r>   -27.8372     0.0000     8.0000 </r>
       <r>   -27.6548     0.0000     8.0000 </r>
       <r>   -27.4723    10.9624    10.0000 </r>
       <r>   -27.2899     0.0000    10.0000 </r>
       <r>   -27.1074     0.0000    10.0000 </r>
       <r>   -26.9250     0.0000    10.0000 </r>
       <r>   -26.7426    10.9624    12.0000 </r>
       <r>   -26.5601    10.9158    13.9915 </r>
       <r>   -26.3777     0.0000    14.0000 </r>
       <r>   -26.1952     0.0000    14.0000 </r>
       <r>   -26.0128     0.0000    18.0000 </r>
       <r>   -25.8303     0.0000    18.0000 </r>
       <r>   -25.6479     0.0000    18.0000 </r>
       <r>   -25.4655     0.0000    18.0000 </r>
       <r>   -25.2830     0.0000    18.0000 </r>
       <r>   -25.1006     0.0000    18.0000 </r>
       <r>   -24.9181     0.0000    18.0000 </r>
       <r>   -24.7357     0.0000    18.0000 </r>
       <r>   -24.5533     0.0000    18.0000 </r>
       <r>   -24.3708     0.0000    18.0000 </r>
       <r>   -24.1884     0.0000    18.0000 </r>
       <r>   -24.0059    10.9624    20.0000 </r>
       <r>   -23.8235     0.0000    20.0000 </r>
       <r>   -23.6410     0.0000    20.0000 </r>
       <r>   -23.4586     0.0000    20.0000 </r>
       <r>   -23.2762     0.0000    20.0000 </r>
       <r>   -23.0937     0.0000    20.0000 </r>
       <r>   -22.9113     0.0000    22.0000 </r>
       <r>   -22.7288     0.0000    22.0000 </r>
       <r>   -22.5464     0.0621    22.0113 </r>
       <r>   -22.3639     8.5988    25.5688 </r>
       <r>   -22.1815     0.0000    28.0000 </r>
       <r>   -21.9991    10.9603    31.9996 </r>
       <r>   -21.8166     0.0000    32.0000 </r>
       <r>   -21.6342     0.0000    32.0000 </r>
       <r>   -21.4517     0.0000    34.0000 </r>
       <r>   -21.2693     0.0000    34.0000 </r>
       <r>   -21.0868    10.2368    35.8676 </r>
       <r>   -20.9044     0.0000    36.0000 </r>
       <r>   -20.7220    10.8396    37.9776 </r>
       <r>   -20.5395     0.0000    38.0000 </r>
       <r>   -20.3571     0.0000    38.0000 </r>
       <r>   -20.1746     0.0000    38.0000 </r>
       <r>   -19.9922     0.0000    38.0000 </r>
       <r>   -19.8098     0.0000    38.0000 </r>
       <r>   -19.6273     0.1014    38.0185 </r>
       <r>   -19.4449     0.0000    40.0000 </r>
       <r>   -19.2624     0.0000    42.0000 </r>
       <r>   -19.0800     0.0000    42.0000 </r>
       <r>   -18.8975     0.0000    42.0000 </r>
       <r>   -18.7151     0.0000    42.0000 </r>
       <r>   -18.5327     0.0000    44.0000 </r>
       <r>   -18.3502    10.9624    46.0000 </r>
       <r>   -18.1678     0.5831    46.1064 </r>
       <r>   -17.9853     0.0000    48.0000 </r>
       <r>   -17.8029    10.9532    51.9983 </r>
       <r>   -17.6204     1.3080    52.2386 </r>
       <r>   -17.4380     0.0000    56.0000 </r>
       <r>   -17.2556     1.4922    56.2722 </r>
       <r>   -17.0731     0.0000    58.0000 </r>
       <r>   -16.8907     0.3015    58.0550 </r>
       <r>   -16.7082     0.0000    60.0000 </r>
       <r>   -16.5258     0.0000    62.0000 </r>
       <r>   -16.3434     0.0000    62.0000 </r>
       <r>   -16.1609     0.0000    62.0000 </r>
       <r>   -15.9785     0.0000    62.0000 </r>
       <r>   -15.7960    10.9945    64.0059 </r>
       <r>   -15.6136    10.9412    67.9961 </r>
       <r>   -15.4311     0.0000    68.0000 </r>
       <r>   -15.2487     0.4548    68.0830 </r>
       <r>   -15.0663     0.0000    70.0000 </r>
       <r>   -14.8838     0.0000    70.0000 </r>
       <r>   -14.7014    21.4802    73.9189 </r>
       <r>   -14.5189     0.0000    76.0000 </r>
       <r>   -14.3365    10.9596    77.9995 </r>
       <r>   -14.1540     0.0000    78.0000 </r>
       <r>   -13.9716    21.8793    83.9917 </r>
       <r>   -13.7892    21.9241    87.9999 </r>
       <r>   -13.6067     0.0009    90.0002 </r>
       <r>   -13.4243     0.0000    94.0000 </r>
       <r>   -13.2418     0.0000    96.0000 </r>
       <r>   -13.0594     8.4773    99.5466 </r>
       <r>   -12.8770     0.0004   100.0001 </r>
       <r>   -12.6945    10.9624   106.0000 </r>
       <r>   -12.5121    10.9624   110.0000 </r>
       <r>   -12.3296    10.9624   114.0000 </r>
       <r>   -12.1472    10.9624   116.0000 </r>
       <r>   -11.9647    10.9624   120.0000 </r>
       <r>   -11.7823     0.0000   120.0000 </r>
       <r>   -11.5999    10.9619   121.9999 </r>
       <r>   -11.4174    10.9624   124.0000 </r>
       <r>   -11.2350    10.9624   126.0000 </r>
       <r>   -11.0525     0.6315   128.1152 </r>
       <r>   -10.8701     0.0000   132.0000 </r>
       <r>   -10.6876    21.9248   136.0000 </r>
       <r>   -10.5052     0.0000   136.0000 </r>
       <r>   -10.3228     0.0000   140.0000 </r>
       <r>   -10.1403     0.0000   140.0000 </r>
       <r>    -9.9579     0.0000   144.0000 </r>
       <r>    -9.7754    10.9624   146.0000 </r>
       <r>    -9.5930     0.0022   150.0004 </r>
       <r>    -9.4105     0.0000   152.0000 </r>
       <r>    -9.2281     0.0000   154.0000 </r>
       <r>    -9.0457     0.0571   154.0104 </r>
       <r>    -8.8632     0.0000   156.0000 </r>
       <r>    -8.6808    10.9624   158.0000 </r>
       <r>    -8.4983     0.0000   158.0000 </r>
       <r>    -8.3159     5.8184   159.0615 </r>
       <r>    -8.1335     0.0000   160.0000 </r>
       <r>    -7.9510     0.0000   160.0000 </r>
       <r>    -7.7686     0.0000   160.0000 </r>
       <r>    -7.5861     0.0000   160.0000 </r>
       <r>    -7.4037     9.7411   161.7772 </r>
       <r>    -7.2212    10.9512   163.9980 </r>
       <r>    -7.0388    10.9624   166.0000 </r>
       <r>    -6.8564     0.0000   166.0000 </r>
       <r>    -6.6739     0.0000   166.0000 </r>
       <r>    -6.4915     0.0000   166.0000 </r>
       <r>    -6.3090     0.0000   166.0000 </r>
       <r>    -6.1266     0.0000   166.0000 </r>
       <r>    -5.9441     0.0000   166.0000 </r>
       <r>    -5.7617    10.9602   167.9996 </r>
       <r>    -5.5793     0.0000   168.0000 </r>
       <r>    -5.3968     0.0000   168.0000 </r>
       <r>    -5.2144     0.0000   168.0000 </r>
       <r>    -5.0319    10.9521   169.9981 </r>
       <r>    -4.8495    10.9624   172.0000 </r>
       <r>    -4.6671     0.0000   172.0000 </r>
       <r>    -4.4846     0.0000   172.0000 </r>
       <r>    -4.3022    10.9624   174.0000 </r>
       <r>    -4.1197     4.9452   174.9022 </r>
       <r>    -3.9373     0.0000   178.0000 </r>
       <r>    -3.7548     0.0000   182.0000 </r>
       <r>    -3.5724     1.3795   182.2517 </r>
       <r>    -3.3900    10.9624   186.0000 </r>
       <r>    -3.2075     0.0000   186.0000 </r>
       <r>    -3.0251     0.0000   188.0000 </r>
       <r>    -2.8426     0.0000   190.0000 </r>
       <r>    -2.6602     3.5616   190.6498 </r>
       <r>    -2.4777     0.0000   192.0000 </r>
       <r>    -2.2953     0.0000   192.0000 </r>
       <r>    -2.1129     0.0000   192.0000 </r>
       <r>    -1.9304    10.9624   194.0000 </r>
       <r>    -1.7480     0.0000   194.0000 </r>
       <r>    -1.5655    10.9622   198.0000 </r>
       <r>    -1.3831     0.0000   200.0000 </r>
       <r>    -1.2006    10.9624   204.0000 </r>
       <r>    -1.0182    11.4530   206.0895 </r>
       <r>    -0.8358     0.0000   210.0000 </r>
       <r>    -0.6533    22.2355   214.0567 </r>
       <r>    -0.4709    10.9624   218.0000 </r>
       <r>    -0.2884    14.0399   224.5615 </r>
       <r>    -0.1060    10.9624   228.0000 </r>
       <r>     0.0764    11.2732   232.0567 </r>
       <r>     0.2589    21.9655   238.0074 </r>
       <r>     0.4413    21.8068   245.9785 </r>
       <r>     0.6238    16.7676   251.0591 </r>
       <r>     0.8062     0.0000   256.0000 </r>
       <r>     0.9887     0.0000   256.0000 </r>
       <r>     1.1711     0.0000   256.0000 </r>
       <r>     1.3535     0.0000   256.0000 </r>
       <r>     1.5360     0.0000   256.0000 </r>
       <r>     1.7184     0.0000   256.0000 </r>
       <r>     1.9009     0.0000   256.0000 </r>
       <r>     2.0833     0.0000   256.0000 </r>
       <r>     2.2658     0.0000   256.0000 </r>
       <r>     2.4482     0.0000   256.0000 </r>
       <r>     2.6306     0.0000   256.0000 </r>
       <r>     2.8131     0.0000   256.0000 </r>
       <r>     2.9955     0.0000   256.0000 </r>
       <r>     3.1780     0.0000   256.0000 </r>
      </set>
     </set>
    </array>
   </total>
  </dos>
 </calculation>
 <structure name="finalpos" >
  <crystal>
   <varray name="basis" >
    <v>      20.00000000       0.00000000       0.00000000 </v>
    <v>       0.00000000      20.00000000       0.00000000 </v>
    <v>       0.00000000       0.00000000      20.00000000 </v>
   </varray>
   <i name="volume">   8000.00000000 </i>
   <varray name="rec_basis" >
    <v>       0.05000000       0.00000000       0.00000000 </v>
    <v>       0.00000000       0.05000000       0.00000000 </v>
    <v>       0.00000000       0.00000000       0.05000000 </v>
   </varray>
  </crystal>
  <varray name="positions" >
   <v>       0.70082162       0.56612858       0.49044049 </v>
   <v>       0.43793752       0.56561110       0.32757008 </v>
   <v>       0.45581208       0.52423376       0.38051465 </v>
   <v>       0.47372925       0.61530131       0.44986522 </v>
   <v>       0.45595175       0.65963312       0.39935201 </v>
   <v>       0.43785737       0.63472201       0.33675972 </v>
   <v>       0.52307882       0.32955005       0.67474498 </v>
   <v>       0.49710163       0.37190466       0.62618823 </v>
   <v>       0.60227374       0.41933300       0.60593616 </v>
   <v>       0.63096398       0.37761922       0.65422416 </v>
   <v>       0.73964927       0.52855915       0.53463181 </v>
   <v>       0.29334713       0.47671938       0.56830116 </v>
   <v>       0.63257913       0.55363620       0.48652424 </v>
   <v>       0.63952130       0.46927713       0.56732841 </v>
   <v>       0.70843899       0.47974495       0.57314689 </v>
   <v>       0.59134754       0.33224398       0.68903016 </v>
   <v>       0.36211554       0.48866484       0.56417415 </v>
   <v>       0.40790931       0.62211625       0.69058213 </v>
   <v>       0.47619960       0.62606623       0.67660612 </v>
   <v>       0.50295190       0.58590820       0.62668073 </v>
   <v>       0.39825425       0.53800137       0.60426081 </v>
   <v>       0.36904589       0.57756069       0.65398228 </v>
   <v>       0.37289802       0.40579857       0.48223443 </v>
   <v>       0.30486503       0.39173492       0.48443166 </v>
   <v>       0.26422003       0.42785518       0.52821594 </v>
   <v>       0.48989745       0.29510618       0.70074864 </v>
   <v>       0.61334240       0.29968355       0.72673159 </v>
   <v>       0.68424189       0.38076917       0.66478776 </v>
   <v>       0.54225374       0.36233861       0.46129841 </v>
   <v>       0.31579090       0.57306911       0.66420366 </v>
   <v>       0.44416348       0.37118871       0.61364770 </v>
   <v>       0.42392665       0.66833230       0.29622671 </v>
   <v>       0.45642762       0.71313270       0.40950260 </v>
   <v>       0.48809132       0.63358802       0.49907234 </v>
   <v>       0.56912778       0.41808713       0.41480476 </v>
   <v>       0.73767440       0.44963919       0.60776512 </v>
   <v>       0.72277620       0.60481012       0.45904817 </v>
   <v>       0.45570253       0.47012894       0.37468790 </v>
   <v>       0.40614333       0.37888556       0.44852541 </v>
   <v>       0.28443799       0.35306162       0.45202062 </v>
   <v>       0.79326502       0.53703787       0.53892527 </v>
   <v>       0.55589708       0.58769132       0.61440612 </v>
   <v>       0.42412006       0.54328620       0.27986105 </v>
   <v>       0.50894741       0.65984570       0.70400156 </v>
   <v>       0.26265982       0.50568523       0.60265428 </v>
   <v>       0.21072272       0.41813760       0.53105039 </v>
   <v>       0.60090654       0.58197914       0.45254259 </v>
   <v>       0.38544357       0.65296704       0.72941133 </v>
   <v>       0.47424490       0.54794204       0.44140236 </v>
   <v>       0.40180479       0.45306079       0.52108436 </v>
   <v>       0.53520702       0.41608490       0.59173240 </v>
   <v>       0.46544808       0.54254992       0.59041194 </v>
   <v>       0.60138410       0.50650621       0.52397638 </v>
   <v>       0.53073984       0.40562607       0.44215451 </v>
   <v>       0.50088568       0.48087016       0.51934246 </v>
  </varray>
  <varray name="selective"  type="logical" >
   <v type="logical" >  T  T  T </v>
   <v type="logical" >  T  T  T </v>
   <v type="logical" >  T  T  T </v>
   <v type="logical" >  T  T  T </v>
   <v type="logical" >  T  T  T </v>
   <v type="logical" >  T  T  T </v>
   <v type="logical" >  T  T  T </v>
   <v type="logical" >  T  T  T </v>
   <v type="logical" >  T  T  T </v>
   <v type="logical" >  T  T  T </v>
   <v type="logical" >  T  T  T </v>
   <v type="logical" >  T  T  T </v>
   <v type="logical" >  T  T  T </v>
   <v type="logical" >  T  T  T </v>
   <v type="logical" >  T  T  T </v>
   <v type="logical" >  T  T  T </v>
   <v type="logical" >  T  T  T </v>
   <v type="logical" >  T  T  T </v>
   <v type="logical" >  T  T  T </v>
   <v type="logical" >  T  T  T </v>
   <v type="logical" >  T  T  T </v>
   <v type="logical" >  T  T  T </v>
   <v type="logical" >  T  T  T </v>
   <v type="logical" >  T  T  T </v>
   <v type="logical" >  T  T  T </v>
   <v type="logical" >  T  T  T </v>
   <v type="logical" >  T  T  T </v>
   <v type="logical" >  T  T  T </v>
   <v type="logical" >  T  T  T </v>
   <v type="logical" >  T  T  T </v>
   <v type="logical" >  T  T  T </v>
   <v type="logical" >  T  T  T </v>
   <v type="logical" >  T  T  T </v>
   <v type="logical" >  T  T  T </v>
   <v type="logical" >  T  T  T </v>
   <v type="logical" >  T  T  T </v>
   <v type="logical" >  T  T  T </v>
   <v type="logical" >  T  T  T </v>
   <v type="logical" >  T  T  T </v>
   <v type="logical" >  T  T  T </v>
   <v type="logical" >  T  T  T </v>
   <v type="logical" >  T  T  T </v>
   <v type="logical" >  T  T  T </v>
   <v type="logical" >  T  T  T </v>
   <v type="logical" >  T  T  T </v>
   <v type="logical" >  T  T  T </v>
   <v type="logical" >  T  T  T </v>
   <v type="logical" >  T  T  T </v>
   <v type="logical" >  T  T  T </v>
   <v type="logical" >  T  T  T </v>
   <v type="logical" >  T  T  T </v>
   <v type="logical" >  T  T  T </v>
   <v type="logical" >  T  T  T </v>
   <v type="logical" >  T  T  T </v>
   <v type="logical" >  T  T  T </v>
  </varray>
  <nose>
   <v>      -3.00000000       0.00000000       0.00010000       0.00010000 </v>
  </nose>
 </structure>
</modeling>
