  55  55   0   0
  0.1454545E+03  0.2000000E-08  0.2000000E-08  0.2000000E-08  0.5000000E-15
  1.000000000000000E-004
  CAR 
 c2_oh2_ruthenium_mol                    
      3.17536702    -51.67188599  301     -7.15419896      1.00000000
    -51.672  0.0000E+00  0.0000E+00  0.0000E+00  0.0000E+00
    -51.489  0.0000E+00  0.0000E+00  0.0000E+00  0.0000E+00
    -51.306  0.0000E+00  0.0000E+00  0.0000E+00  0.0000E+00
    -51.123  0.0000E+00  0.0000E+00  0.0000E+00  0.0000E+00
    -50.941  0.0000E+00  0.0000E+00  0.0000E+00  0.0000E+00
    -50.758  0.0000E+00  0.0000E+00  0.0000E+00  0.0000E+00
    -50.575  0.0000E+00  0.0000E+00  0.0000E+00  0.0000E+00
    -50.392  0.0000E+00  0.0000E+00  0.0000E+00  0.0000E+00
    -50.209  0.0000E+00  0.0000E+00  0.0000E+00  0.0000E+00
    -50.026  0.0000E+00  0.0000E+00  0.0000E+00  0.0000E+00
    -49.844  0.0000E+00  0.0000E+00  0.0000E+00  0.0000E+00
    -49.661  0.0000E+00  0.0000E+00  0.0000E+00  0.0000E+00
    -49.478  0.0000E+00  0.0000E+00  0.0000E+00  0.0000E+00
    -49.295  0.0000E+00  0.0000E+00  0.0000E+00  0.0000E+00
    -49.112  0.1094E+02  0.1094E+02  0.2000E+01  0.2000E+01
    -48.930  0.0000E+00  0.0000E+00  0.4000E+01  0.4000E+01
    -48.747  0.0000E+00  0.0000E+00  0.6000E+01  0.6000E+01
    -48.564  0.0000E+00  0.0000E+00  0.6000E+01  0.6000E+01
    -48.381  0.0000E+00  0.0000E+00  0.6000E+01  0.6000E+01
    -48.198  0.0000E+00  0.0000E+00  0.6000E+01  0.6000E+01
    -48.015  0.0000E+00  0.0000E+00  0.6000E+01  0.6000E+01
    -47.833  0.0000E+00  0.0000E+00  0.6000E+01  0.6000E+01
    -47.650  0.0000E+00  0.0000E+00  0.6000E+01  0.6000E+01
    -47.467  0.0000E+00  0.0000E+00  0.6000E+01  0.6000E+01
    -47.284  0.0000E+00  0.0000E+00  0.6000E+01  0.6000E+01
    -47.101  0.0000E+00  0.0000E+00  0.6000E+01  0.6000E+01
    -46.918  0.0000E+00  0.0000E+00  0.6000E+01  0.6000E+01
    -46.736  0.0000E+00  0.0000E+00  0.6000E+01  0.6000E+01
    -46.553  0.0000E+00  0.0000E+00  0.6000E+01  0.6000E+01
    -46.370  0.0000E+00  0.0000E+00  0.6000E+01  0.6000E+01
    -46.187  0.0000E+00  0.0000E+00  0.6000E+01  0.6000E+01
    -46.004  0.0000E+00  0.0000E+00  0.6000E+01  0.6000E+01
    -45.822  0.0000E+00  0.0000E+00  0.6000E+01  0.6000E+01
    -45.639  0.0000E+00  0.0000E+00  0.6000E+01  0.6000E+01
    -45.456  0.0000E+00  0.0000E+00  0.6000E+01  0.6000E+01
    -45.273  0.0000E+00  0.0000E+00  0.6000E+01  0.6000E+01
    -45.090  0.0000E+00  0.0000E+00  0.6000E+01  0.6000E+01
    -44.907  0.0000E+00  0.0000E+00  0.6000E+01  0.6000E+01
    -44.725  0.0000E+00  0.0000E+00  0.6000E+01  0.6000E+01
    -44.542  0.0000E+00  0.0000E+00  0.6000E+01  0.6000E+01
    -44.359  0.0000E+00  0.0000E+00  0.6000E+01  0.6000E+01
    -44.176  0.0000E+00  0.0000E+00  0.6000E+01  0.6000E+01
    -43.993  0.0000E+00  0.0000E+00  0.6000E+01  0.6000E+01
    -43.810  0.0000E+00  0.0000E+00  0.6000E+01  0.6000E+01
    -43.628  0.0000E+00  0.0000E+00  0.6000E+01  0.6000E+01
    -43.445  0.0000E+00  0.0000E+00  0.6000E+01  0.6000E+01
    -43.262  0.0000E+00  0.0000E+00  0.6000E+01  0.6000E+01
    -43.079  0.0000E+00  0.0000E+00  0.6000E+01  0.6000E+01
    -42.896  0.0000E+00  0.0000E+00  0.6000E+01  0.6000E+01
    -42.714  0.0000E+00  0.0000E+00  0.6000E+01  0.6000E+01
    -42.531  0.0000E+00  0.0000E+00  0.6000E+01  0.6000E+01
    -42.348  0.0000E+00  0.0000E+00  0.6000E+01  0.6000E+01
    -42.165  0.0000E+00  0.0000E+00  0.6000E+01  0.6000E+01
    -41.982  0.0000E+00  0.0000E+00  0.6000E+01  0.6000E+01
    -41.799  0.0000E+00  0.0000E+00  0.6000E+01  0.6000E+01
    -41.617  0.0000E+00  0.0000E+00  0.6000E+01  0.6000E+01
    -41.434  0.0000E+00  0.0000E+00  0.6000E+01  0.6000E+01
    -41.251  0.0000E+00  0.0000E+00  0.6000E+01  0.6000E+01
    -41.068  0.0000E+00  0.0000E+00  0.6000E+01  0.6000E+01
    -40.885  0.0000E+00  0.0000E+00  0.6000E+01  0.6000E+01
    -40.702  0.0000E+00  0.0000E+00  0.6000E+01  0.6000E+01
    -40.520  0.0000E+00  0.0000E+00  0.6000E+01  0.6000E+01
    -40.337  0.0000E+00  0.0000E+00  0.6000E+01  0.6000E+01
    -40.154  0.0000E+00  0.0000E+00  0.6000E+01  0.6000E+01
    -39.971  0.0000E+00  0.0000E+00  0.6000E+01  0.6000E+01
    -39.788  0.0000E+00  0.0000E+00  0.6000E+01  0.6000E+01
    -39.605  0.0000E+00  0.0000E+00  0.6000E+01  0.6000E+01
    -39.423  0.0000E+00  0.0000E+00  0.6000E+01  0.6000E+01
    -39.240  0.0000E+00  0.0000E+00  0.6000E+01  0.6000E+01
    -39.057  0.0000E+00  0.0000E+00  0.6000E+01  0.6000E+01
    -38.874  0.0000E+00  0.0000E+00  0.6000E+01  0.6000E+01
    -38.691  0.0000E+00  0.0000E+00  0.6000E+01  0.6000E+01
    -38.509  0.0000E+00  0.0000E+00  0.6000E+01  0.6000E+01
    -38.326  0.0000E+00  0.0000E+00  0.6000E+01  0.6000E+01
    -38.143  0.0000E+00  0.0000E+00  0.6000E+01  0.6000E+01
    -37.960  0.0000E+00  0.0000E+00  0.6000E+01  0.6000E+01
    -37.777  0.0000E+00  0.0000E+00  0.6000E+01  0.6000E+01
    -37.594  0.0000E+00  0.0000E+00  0.6000E+01  0.6000E+01
    -37.412  0.0000E+00  0.0000E+00  0.6000E+01  0.6000E+01
    -37.229  0.0000E+00  0.0000E+00  0.6000E+01  0.6000E+01
    -37.046  0.0000E+00  0.0000E+00  0.6000E+01  0.6000E+01
    -36.863  0.0000E+00  0.0000E+00  0.6000E+01  0.6000E+01
    -36.680  0.0000E+00  0.0000E+00  0.6000E+01  0.6000E+01
    -36.497  0.0000E+00  0.0000E+00  0.6000E+01  0.6000E+01
    -36.315  0.0000E+00  0.0000E+00  0.6000E+01  0.6000E+01
    -36.132  0.0000E+00  0.0000E+00  0.6000E+01  0.6000E+01
    -35.949  0.0000E+00  0.0000E+00  0.6000E+01  0.6000E+01
    -35.766  0.0000E+00  0.0000E+00  0.6000E+01  0.6000E+01
    -35.583  0.0000E+00  0.0000E+00  0.6000E+01  0.6000E+01
    -35.401  0.0000E+00  0.0000E+00  0.6000E+01  0.6000E+01
    -35.218  0.0000E+00  0.0000E+00  0.6000E+01  0.6000E+01
    -35.035  0.0000E+00  0.0000E+00  0.6000E+01  0.6000E+01
    -34.852  0.0000E+00  0.0000E+00  0.6000E+01  0.6000E+01
    -34.669  0.0000E+00  0.0000E+00  0.6000E+01  0.6000E+01
    -34.486  0.0000E+00  0.0000E+00  0.6000E+01  0.6000E+01
    -34.304  0.0000E+00  0.0000E+00  0.6000E+01  0.6000E+01
    -34.121  0.0000E+00  0.0000E+00  0.6000E+01  0.6000E+01
    -33.938  0.0000E+00  0.0000E+00  0.6000E+01  0.6000E+01
    -33.755  0.0000E+00  0.0000E+00  0.6000E+01  0.6000E+01
    -33.572  0.0000E+00  0.0000E+00  0.6000E+01  0.6000E+01
    -33.389  0.0000E+00  0.0000E+00  0.6000E+01  0.6000E+01
    -33.207  0.0000E+00  0.0000E+00  0.6000E+01  0.6000E+01
    -33.024  0.0000E+00  0.0000E+00  0.6000E+01  0.6000E+01
    -32.841  0.0000E+00  0.0000E+00  0.6000E+01  0.6000E+01
    -32.658  0.0000E+00  0.0000E+00  0.6000E+01  0.6000E+01
    -32.475  0.0000E+00  0.0000E+00  0.6000E+01  0.6000E+01
    -32.293  0.0000E+00  0.0000E+00  0.6000E+01  0.6000E+01
    -32.110  0.0000E+00  0.0000E+00  0.6000E+01  0.6000E+01
    -31.927  0.0000E+00  0.0000E+00  0.6000E+01  0.6000E+01
    -31.744  0.0000E+00  0.0000E+00  0.6000E+01  0.6000E+01
    -31.561  0.0000E+00  0.0000E+00  0.6000E+01  0.6000E+01
    -31.378  0.0000E+00  0.0000E+00  0.6000E+01  0.6000E+01
    -31.196  0.0000E+00  0.0000E+00  0.6000E+01  0.6000E+01
    -31.013  0.0000E+00  0.0000E+00  0.6000E+01  0.6000E+01
    -30.830  0.0000E+00  0.0000E+00  0.6000E+01  0.6000E+01
    -30.647  0.0000E+00  0.0000E+00  0.6000E+01  0.6000E+01
    -30.464  0.0000E+00  0.0000E+00  0.6000E+01  0.6000E+01
    -30.281  0.0000E+00  0.0000E+00  0.6000E+01  0.6000E+01
    -30.099  0.0000E+00  0.0000E+00  0.6000E+01  0.6000E+01
    -29.916  0.0000E+00  0.0000E+00  0.6000E+01  0.6000E+01
    -29.733  0.0000E+00  0.0000E+00  0.6000E+01  0.6000E+01
    -29.550  0.0000E+00  0.0000E+00  0.6000E+01  0.6000E+01
    -29.367  0.0000E+00  0.0000E+00  0.6000E+01  0.6000E+01
    -29.185  0.0000E+00  0.0000E+00  0.8000E+01  0.8000E+01
    -29.002  0.0000E+00  0.0000E+00  0.8000E+01  0.8000E+01
    -28.819  0.0000E+00  0.0000E+00  0.8000E+01  0.8000E+01
    -28.636  0.0000E+00  0.0000E+00  0.8000E+01  0.8000E+01
    -28.453  0.0000E+00  0.0000E+00  0.8000E+01  0.8000E+01
    -28.270  0.0000E+00  0.0000E+00  0.8000E+01  0.8000E+01
    -28.088  0.0000E+00  0.0000E+00  0.8000E+01  0.8000E+01
    -27.905  0.6806E+01  0.6806E+01  0.9244E+01  0.9244E+01
    -27.722  0.0000E+00  0.0000E+00  0.1000E+02  0.1000E+02
    -27.539  0.0000E+00  0.0000E+00  0.1000E+02  0.1000E+02
    -27.356  0.0000E+00  0.0000E+00  0.1000E+02  0.1000E+02
    -27.173  0.0000E+00  0.0000E+00  0.1000E+02  0.1000E+02
    -26.991  0.0000E+00  0.0000E+00  0.1000E+02  0.1000E+02
    -26.808  0.1094E+02  0.1094E+02  0.1200E+02  0.1200E+02
    -26.625  0.1094E+02  0.1094E+02  0.1400E+02  0.1400E+02
    -26.442  0.0000E+00  0.0000E+00  0.1400E+02  0.1400E+02
    -26.259  0.2755E-01  0.2755E-01  0.1401E+02  0.1401E+02
    -26.077  0.0000E+00  0.0000E+00  0.1800E+02  0.1800E+02
    -25.894  0.0000E+00  0.0000E+00  0.1800E+02  0.1800E+02
    -25.711  0.0000E+00  0.0000E+00  0.1800E+02  0.1800E+02
    -25.528  0.0000E+00  0.0000E+00  0.1800E+02  0.1800E+02
    -25.345  0.0000E+00  0.0000E+00  0.1800E+02  0.1800E+02
    -25.162  0.0000E+00  0.0000E+00  0.1800E+02  0.1800E+02
    -24.980  0.0000E+00  0.0000E+00  0.1800E+02  0.1800E+02
    -24.797  0.0000E+00  0.0000E+00  0.1800E+02  0.1800E+02
    -24.614  0.0000E+00  0.0000E+00  0.1800E+02  0.1800E+02
    -24.431  0.0000E+00  0.0000E+00  0.1800E+02  0.1800E+02
    -24.248  0.0000E+00  0.0000E+00  0.1800E+02  0.1800E+02
    -24.065  0.0000E+00  0.0000E+00  0.1800E+02  0.1800E+02
    -23.883  0.0000E+00  0.0000E+00  0.1800E+02  0.1800E+02
    -23.700  0.0000E+00  0.0000E+00  0.1800E+02  0.1800E+02
    -23.517  0.0000E+00  0.0000E+00  0.1800E+02  0.1800E+02
    -23.334  0.1094E+02  0.1094E+02  0.2000E+02  0.2000E+02
    -23.151  0.1094E+02  0.1094E+02  0.2200E+02  0.2200E+02
    -22.968  0.0000E+00  0.0000E+00  0.2200E+02  0.2200E+02
    -22.786  0.0000E+00  0.0000E+00  0.2200E+02  0.2200E+02
    -22.603  0.0000E+00  0.0000E+00  0.2200E+02  0.2200E+02
    -22.420  0.1094E+02  0.1094E+02  0.2600E+02  0.2600E+02
    -22.237  0.5688E+01  0.5688E+01  0.2904E+02  0.2904E+02
    -22.054  0.1094E+02  0.1094E+02  0.3200E+02  0.3200E+02
    -21.872  0.0000E+00  0.0000E+00  0.3200E+02  0.3200E+02
    -21.689  0.0000E+00  0.0000E+00  0.3200E+02  0.3200E+02
    -21.506  0.8079E+01  0.8079E+01  0.3348E+02  0.3348E+02
    -21.323  0.0000E+00  0.0000E+00  0.3400E+02  0.3400E+02
    -21.140  0.1094E+02  0.1094E+02  0.3600E+02  0.3600E+02
    -20.957  0.0000E+00  0.0000E+00  0.3600E+02  0.3600E+02
    -20.775  0.1094E+02  0.1094E+02  0.3800E+02  0.3800E+02
    -20.592  0.0000E+00  0.0000E+00  0.3800E+02  0.3800E+02
    -20.409  0.0000E+00  0.0000E+00  0.3800E+02  0.3800E+02
    -20.226  0.0000E+00  0.0000E+00  0.3800E+02  0.3800E+02
    -20.043  0.0000E+00  0.0000E+00  0.3800E+02  0.3800E+02
    -19.860  0.0000E+00  0.0000E+00  0.3800E+02  0.3800E+02
    -19.678  0.0000E+00  0.0000E+00  0.3800E+02  0.3800E+02
    -19.495  0.1094E+02  0.1094E+02  0.4000E+02  0.4000E+02
    -19.312  0.5905E-02  0.5905E-02  0.4000E+02  0.4000E+02
    -19.129  0.0000E+00  0.0000E+00  0.4200E+02  0.4200E+02
    -18.946  0.0000E+00  0.0000E+00  0.4200E+02  0.4200E+02
    -18.764  0.1684E+00  0.1684E+00  0.4203E+02  0.4203E+02
    -18.581  0.0000E+00  0.0000E+00  0.4400E+02  0.4400E+02
    -18.398  0.0000E+00  0.0000E+00  0.4600E+02  0.4600E+02
    -18.215  0.2989E-03  0.2989E-03  0.4600E+02  0.4600E+02
    -18.032  0.0000E+00  0.0000E+00  0.4800E+02  0.4800E+02
    -17.849  0.1084E+02  0.1084E+02  0.5198E+02  0.5198E+02
    -17.667  0.1094E+02  0.1094E+02  0.5400E+02  0.5400E+02
    -17.484  0.0000E+00  0.0000E+00  0.5600E+02  0.5600E+02
    -17.301  0.1094E+02  0.1094E+02  0.5800E+02  0.5800E+02
    -17.118  0.0000E+00  0.0000E+00  0.5800E+02  0.5800E+02
    -16.935  0.1094E+02  0.1094E+02  0.6000E+02  0.6000E+02
    -16.752  0.0000E+00  0.0000E+00  0.6000E+02  0.6000E+02
    -16.570  0.0000E+00  0.0000E+00  0.6200E+02  0.6200E+02
    -16.387  0.0000E+00  0.0000E+00  0.6200E+02  0.6200E+02
    -16.204  0.0000E+00  0.0000E+00  0.6200E+02  0.6200E+02
    -16.021  0.0000E+00  0.0000E+00  0.6200E+02  0.6200E+02
    -15.838  0.1094E+02  0.1094E+02  0.6400E+02  0.6400E+02
    -15.656  0.1094E+02  0.1094E+02  0.6600E+02  0.6600E+02
    -15.473  0.0000E+00  0.0000E+00  0.6600E+02  0.6600E+02
    -15.290  0.1877E+02  0.1877E+02  0.6943E+02  0.6943E+02
    -15.107  0.0000E+00  0.0000E+00  0.7000E+02  0.7000E+02
    -14.924  0.0000E+00  0.0000E+00  0.7000E+02  0.7000E+02
    -14.741  0.2188E+02  0.2188E+02  0.7400E+02  0.7400E+02
    -14.559  0.0000E+00  0.0000E+00  0.7600E+02  0.7600E+02
    -14.376  0.9043E+01  0.9043E+01  0.7765E+02  0.7765E+02
    -14.193  0.2683E+01  0.2683E+01  0.7849E+02  0.7849E+02
    -14.010  0.0000E+00  0.0000E+00  0.8400E+02  0.8400E+02
    -13.827  0.1331E+02  0.1331E+02  0.8843E+02  0.8843E+02
    -13.644  0.0000E+00  0.0000E+00  0.9000E+02  0.9000E+02
    -13.462  0.1094E+02  0.1094E+02  0.9200E+02  0.9200E+02
    -13.279  0.1154E-13  0.1154E-13  0.9600E+02  0.9600E+02
    -13.096  0.0000E+00  0.0000E+00  0.1000E+03  0.1000E+03
    -12.913  0.1089E+02  0.1089E+02  0.1020E+03  0.1020E+03
    -12.730  0.2098E+02  0.2098E+02  0.1078E+03  0.1078E+03
    -12.548  0.6166E+01  0.6166E+01  0.1091E+03  0.1091E+03
    -12.365  0.4428E-07  0.4428E-07  0.1120E+03  0.1120E+03
    -12.182  0.0000E+00  0.0000E+00  0.1160E+03  0.1160E+03
    -11.999  0.1094E+02  0.1094E+02  0.1200E+03  0.1200E+03
    -11.816  0.0000E+00  0.0000E+00  0.1200E+03  0.1200E+03
    -11.633  0.3297E-12  0.3297E-12  0.1200E+03  0.1200E+03
    -11.451  0.1094E+02  0.1094E+02  0.1240E+03  0.1240E+03
    -11.268  0.1094E+02  0.1094E+02  0.1260E+03  0.1260E+03
    -11.085  0.2188E+02  0.2188E+02  0.1300E+03  0.1300E+03
    -10.902  0.0000E+00  0.0000E+00  0.1300E+03  0.1300E+03
    -10.719  0.1094E+02  0.1094E+02  0.1340E+03  0.1340E+03
    -10.536  0.1094E+02  0.1094E+02  0.1380E+03  0.1380E+03
    -10.354  0.0000E+00  0.0000E+00  0.1400E+03  0.1400E+03
    -10.171  0.3791E+01  0.3791E+01  0.1407E+03  0.1407E+03
     -9.988  0.0000E+00  0.0000E+00  0.1440E+03  0.1440E+03
     -9.805  0.1174E+02  0.1174E+02  0.1461E+03  0.1461E+03
     -9.622  0.2025E+00  0.2025E+00  0.1500E+03  0.1500E+03
     -9.440  0.0000E+00  0.0000E+00  0.1540E+03  0.1540E+03
     -9.257  0.0000E+00  0.0000E+00  0.1540E+03  0.1540E+03
     -9.074  0.0000E+00  0.0000E+00  0.1540E+03  0.1540E+03
     -8.891  0.1094E+02  0.1094E+02  0.1560E+03  0.1560E+03
     -8.708  0.0000E+00  0.0000E+00  0.1580E+03  0.1580E+03
     -8.525  0.0000E+00  0.0000E+00  0.1580E+03  0.1580E+03
     -8.343  0.1094E+02  0.1094E+02  0.1600E+03  0.1600E+03
     -8.160  0.0000E+00  0.0000E+00  0.1600E+03  0.1600E+03
     -7.977  0.0000E+00  0.0000E+00  0.1600E+03  0.1600E+03
     -7.794  0.0000E+00  0.0000E+00  0.1600E+03  0.1600E+03
     -7.611  0.0000E+00  0.0000E+00  0.1600E+03  0.1600E+03
     -7.428  0.1094E+02  0.1094E+02  0.1620E+03  0.1620E+03
     -7.246  0.7507E-07  0.7508E-07  0.1640E+03  0.1640E+03
     -7.063  0.0000E+00  0.0000E+00  0.1660E+03  0.1660E+03
     -6.880  0.0000E+00  0.0000E+00  0.1660E+03  0.1660E+03
     -6.697  0.0000E+00  0.0000E+00  0.1660E+03  0.1660E+03
     -6.514  0.0000E+00  0.0000E+00  0.1660E+03  0.1660E+03
     -6.331  0.0000E+00  0.0000E+00  0.1660E+03  0.1660E+03
     -6.149  0.0000E+00  0.0000E+00  0.1660E+03  0.1660E+03
     -5.966  0.0000E+00  0.0000E+00  0.1660E+03  0.1660E+03
     -5.783  0.0000E+00  0.0000E+00  0.1660E+03  0.1660E+03
     -5.600  0.0000E+00  0.0000E+00  0.1660E+03  0.1660E+03
     -5.417  0.1094E+02  0.1094E+02  0.1680E+03  0.1680E+03
     -5.235  0.1094E+02  0.1094E+02  0.1700E+03  0.1700E+03
     -5.052  0.4177E+01  0.4177E+01  0.1708E+03  0.1708E+03
     -4.869  0.0000E+00  0.0000E+00  0.1720E+03  0.1720E+03
     -4.686  0.0000E+00  0.0000E+00  0.1720E+03  0.1720E+03
     -4.503  0.0000E+00  0.0000E+00  0.1720E+03  0.1720E+03
     -4.320  0.1094E+02  0.1094E+02  0.1740E+03  0.1740E+03
     -4.138  0.1175E+02  0.1175E+02  0.1761E+03  0.1761E+03
     -3.955  0.1094E+02  0.1094E+02  0.1800E+03  0.1800E+03
     -3.772  0.0000E+00  0.0000E+00  0.1820E+03  0.1820E+03
     -3.589  0.3300E-06  0.3300E-06  0.1820E+03  0.1820E+03
     -3.406  0.0000E+00  0.0000E+00  0.1840E+03  0.1840E+03
     -3.223  0.2188E+02  0.2188E+02  0.1880E+03  0.1880E+03
     -3.041  0.1227E-12  0.1227E-12  0.1880E+03  0.1880E+03
     -2.858  0.0000E+00  0.0000E+00  0.1900E+03  0.1900E+03
     -2.675  0.0000E+00  0.0000E+00  0.1920E+03  0.1920E+03
     -2.492  0.0000E+00  0.0000E+00  0.1920E+03  0.1920E+03
     -2.309  0.0000E+00  0.0000E+00  0.1920E+03  0.1920E+03
     -2.127  0.0000E+00  0.0000E+00  0.1920E+03  0.1920E+03
     -1.944  0.5530E-05  0.5528E-05  0.1920E+03  0.1920E+03
     -1.761  0.1985E+01  0.1985E+01  0.1944E+03  0.1944E+03
     -1.578  0.1044E+02  0.1044E+02  0.1979E+03  0.1979E+03
     -1.395  0.6746E+01  0.6746E+01  0.1992E+03  0.1992E+03
     -1.212  0.1094E+02  0.1094E+02  0.2020E+03  0.2020E+03
     -1.030  0.5382E-04  0.5384E-04  0.2060E+03  0.2060E+03
     -0.847  0.1094E+02  0.1094E+02  0.2100E+03  0.2100E+03
     -0.664  0.2014E+01  0.2014E+01  0.2124E+03  0.2124E+03
     -0.481  0.2188E+02  0.2188E+02  0.2200E+03  0.2200E+03
     -0.298  0.1094E+02  0.1094E+02  0.2240E+03  0.2240E+03
     -0.115  0.2961E+01  0.2962E+01  0.2285E+03  0.2285E+03
      0.067  0.1098E+02  0.1098E+02  0.2320E+03  0.2320E+03
      0.250  0.1099E+02  0.1099E+02  0.2380E+03  0.2380E+03
      0.433  0.2074E+02  0.2074E+02  0.2458E+03  0.2458E+03
      0.616  0.9517E+01  0.9517E+01  0.2517E+03  0.2517E+03
      0.799  0.0000E+00  0.0000E+00  0.2560E+03  0.2560E+03
      0.981  0.0000E+00  0.0000E+00  0.2560E+03  0.2560E+03
      1.164  0.0000E+00  0.0000E+00  0.2560E+03  0.2560E+03
      1.347  0.0000E+00  0.0000E+00  0.2560E+03  0.2560E+03
      1.530  0.0000E+00  0.0000E+00  0.2560E+03  0.2560E+03
      1.713  0.0000E+00  0.0000E+00  0.2560E+03  0.2560E+03
      1.896  0.0000E+00  0.0000E+00  0.2560E+03  0.2560E+03
      2.078  0.0000E+00  0.0000E+00  0.2560E+03  0.2560E+03
      2.261  0.0000E+00  0.0000E+00  0.2560E+03  0.2560E+03
      2.444  0.0000E+00  0.0000E+00  0.2560E+03  0.2560E+03
      2.627  0.0000E+00  0.0000E+00  0.2560E+03  0.2560E+03
      2.810  0.0000E+00  0.0000E+00  0.2560E+03  0.2560E+03
      2.993  0.0000E+00  0.0000E+00  0.2560E+03  0.2560E+03
      3.175  0.0000E+00  0.0000E+00  0.2560E+03  0.2560E+03
