   55   55    1    2
  0.1454545E+03  0.2000000E-08  0.2000000E-08  0.2000000E-08  0.5000000E-15
  1.000000000000000E-004
  CAR 
 c2_oh2_ruthenium_mol                    
    166      1    128
 
  0.0000000E+00  0.0000000E+00  0.0000000E+00  0.1000000E+01
    1      -49.178829    -49.178829
    2      -49.027830    -49.027830
    3      -48.831443    -48.831443
    4      -29.286974    -29.286974
    5      -27.906944    -27.906944
    6      -26.877769    -26.877769
    7      -26.675821    -26.675821
    8      -26.239493    -26.239493
    9      -26.174861    -26.174861
   10      -23.383913    -23.383913
   11      -23.221409    -23.221409
   12      -22.515241    -22.515241
   13      -22.459936    -22.459936
   14      -22.342214    -22.342214
   15      -22.237547    -22.237547
   16      -22.104864    -22.104864
   17      -21.510414    -21.510414
   18      -21.184222    -21.184222
   19      -20.826217    -20.826217
   20      -19.538369    -19.538369
   21      -19.288892    -19.288892
   22      -18.748262    -18.748262
   23      -18.483496    -18.483496
   24      -18.186531    -18.186531
   25      -17.942286    -17.942286
   26      -17.866079    -17.866079
   27      -17.700130    -17.700130
   28      -17.635110    -17.635110
   29      -17.335497    -17.335497
   30      -16.965704    -16.965704
   31      -16.664412    -16.664412
   32      -15.879102    -15.879102
   33      -15.699634    -15.699634
   34      -15.353685    -15.353685
   35      -15.293904    -15.293904
   36      -14.793803    -14.793803
   37      -14.776235    -14.776235
   38      -14.716567    -14.716567
   39      -14.382408    -14.382408
   40      -14.188054    -14.188054
   41      -14.130572    -14.130572
   42      -14.104235    -14.104235
   43      -13.925341    -13.925341
   44      -13.850235    -13.850235
   45      -13.821760    -13.821760
   46      -13.530746    -13.530746
   47      -13.427948    -13.427948
   48      -13.424603    -13.424603
   49      -13.222710    -13.222710
   50      -13.185128    -13.185128
   51      -12.931705    -12.931705
   52      -12.885993    -12.885993
   53      -12.788442    -12.788442
   54      -12.740176    -12.740176
   55      -12.548645    -12.548645
   56      -12.448970    -12.448970
   57      -12.323913    -12.323913
   58      -12.286569    -12.286569
   59      -12.094501    -12.094501
   60      -12.056789    -12.056789
   61      -11.580306    -11.580306
   62      -11.515125    -11.515125
   63      -11.313976    -11.313976
   64      -11.161111    -11.161111
   65      -11.128140    -11.128140
   66      -10.818046    -10.818046
   67      -10.753373    -10.753373
   68      -10.639651    -10.639651
   69      -10.590463    -10.590463
   70      -10.512437    -10.512437
   71      -10.168006    -10.168006
   72      -10.076232    -10.076232
   73       -9.849921     -9.849921
   74       -9.794868     -9.794868
   75       -9.754149     -9.754149
   76       -9.607579     -9.607579
   77       -9.521339     -9.521339
   78       -8.949078     -8.949078
   79       -8.806385     -8.806385
   80       -8.419221     -8.419221
   81       -7.502433     -7.502433
   82       -7.378996     -7.378996
   83       -7.205470     -7.205470
   84       -5.481962     -5.481962
   85       -5.304407     -5.304407
   86       -5.049595     -5.049595
   87       -4.359735     -4.359735
   88       -4.190885     -4.190885
   89       -4.127380     -4.127380
   90       -4.012409     -4.012409
   91       -3.910918     -3.910918
   92       -3.550818     -3.550818
   93       -3.302034     -3.302034
   94       -3.256371     -3.256372
   95       -2.986662     -2.986662
   96       -2.771061     -2.771061
   97       -1.909136     -1.909136
   98       -1.754452     -1.754452
   99       -1.590015     -1.590015
  100       -1.397336     -1.397336
  101       -1.262325     -1.262325
  102       -1.183157     -1.183157
  103       -1.161125     -1.161125
  104       -0.998330     -0.998331
  105       -0.893283     -0.893284
  106       -0.764904     -0.764904
  107       -0.657578     -0.657578
  108       -0.581097     -0.581097
  109       -0.544261     -0.544262
  110       -0.532443     -0.532443
  111       -0.395559     -0.395561
  112       -0.367715     -0.367717
  113       -0.247905     -0.247906
  114       -0.203662     -0.203663
  115       -0.111149     -0.111150
  116        0.016818      0.016817
  117        0.086324      0.086320
  118        0.151980      0.151979
  119        0.214327      0.214325
  120        0.268814      0.268813
  121        0.301522      0.301521
  122        0.367235      0.367234
  123        0.424093      0.424092
  124        0.467502      0.467503
  125        0.511855      0.511856
  126        0.608992      0.608993
  127        0.628479      0.628475
  128        0.681944      0.682310
