       N       E                     dE             d eps       ncg     rms          rms(c)
DAV:   1     0.909769319682E+03    0.90977E+03   -0.58810E+04   768   0.974E+02
DAV:   2    -0.692899948885E+02   -0.97906E+03   -0.97270E+03  1024   0.160E+02
DAV:   3    -0.392577672598E+03   -0.32329E+03   -0.32285E+03   832   0.849E+01
DAV:   4    -0.411505400711E+03   -0.18928E+02   -0.18906E+02   640   0.258E+01
DAV:   5    -0.411804229248E+03   -0.29883E+00   -0.29854E+00   832   0.324E+00    0.576E+01
DAV:   6    -0.393646591345E+03    0.18158E+02   -0.38369E+02   512   0.234E+01    0.392E+01
DAV:   7    -0.382833572040E+03    0.10813E+02   -0.23015E+01   768   0.214E+01    0.239E+01
DAV:   8    -0.378502106868E+03    0.43315E+01   -0.17378E+01   768   0.104E+01    0.966E+00
DAV:   9    -0.377306164516E+03    0.11959E+01   -0.48068E+00   768   0.475E+00    0.369E+00
DAV:  10    -0.377262133864E+03    0.44031E-01   -0.46361E-01   768   0.163E+00    0.258E+00
DAV:  11    -0.377123188389E+03    0.13895E+00   -0.15973E-01   768   0.969E-01    0.103E+00
DAV:  12    -0.377056239905E+03    0.66948E-01   -0.68387E-02   768   0.628E-01    0.643E-01
DAV:  13    -0.377036917382E+03    0.19323E-01   -0.17651E-02   768   0.354E-01    0.463E-01
DAV:  14    -0.377025537743E+03    0.11380E-01   -0.14919E-02   768   0.314E-01    0.284E-01
DAV:  15    -0.377027879107E+03   -0.23414E-02   -0.45194E-03   768   0.195E-01    0.226E-01
DAV:  16    -0.377035238838E+03   -0.73597E-02   -0.14365E-03   768   0.125E-01    0.161E-01
DAV:  17    -0.377040856061E+03   -0.56172E-02   -0.11636E-03   768   0.106E-01    0.894E-02
DAV:  18    -0.377045694786E+03   -0.48387E-02   -0.59081E-04   768   0.717E-02    0.694E-02
DAV:  19    -0.377050437276E+03   -0.47425E-02   -0.36795E-04   768   0.577E-02    0.410E-02
DAV:  20    -0.377052523232E+03   -0.20860E-02   -0.10763E-04   768   0.304E-02    0.272E-02
DAV:  21    -0.377054400827E+03   -0.18776E-02   -0.53120E-05   768   0.218E-02    0.167E-02
DAV:  22    -0.377055863923E+03   -0.14631E-02   -0.50052E-05   768   0.177E-02    0.930E-03
DAV:  23    -0.377056315995E+03   -0.45207E-03   -0.91072E-06   640   0.758E-03    0.778E-03
DAV:  24    -0.377056832300E+03   -0.51630E-03   -0.11874E-05   640   0.723E-03    0.312E-03
DAV:  25    -0.377057004601E+03   -0.17230E-03   -0.36921E-06   640   0.389E-03    0.219E-03
DAV:  26    -0.377057121610E+03   -0.11701E-03   -0.14375E-06   640   0.245E-03    0.150E-03
DAV:  27    -0.377057228381E+03   -0.10677E-03   -0.23049E-06   640   0.260E-03    0.107E-03
DAV:  28    -0.377057260085E+03   -0.31704E-04   -0.36602E-07   640   0.123E-03    0.573E-04
DAV:  29    -0.377057281480E+03   -0.21395E-04   -0.15782E-07   640   0.894E-04    0.349E-04
DAV:  30    -0.377057292428E+03   -0.10948E-04   -0.27767E-08   640   0.654E-04    0.205E-04
DAV:  31    -0.377057296802E+03   -0.43736E-05    0.74573E-08   640   0.358E-04
   1 F= -.37705730E+03 E0= -.37705730E+03  d E =-.216263E-13  mag=     0.0000
