 vasp.5.3.5 31Mar14 (build Apr 08 2014 12:00:03) complex                        
  
 VASP binary ID code NSC-NSCPATCH-BUILD02 date 2017.03.15  19:00:28
 running on   64 total cores
 distrk:  each k-point on   64 cores,    1 groups
 distr:  one band on NCORES_PER_BAND=   1 cores,   64 groups


--------------------------------------------------------------------------------------------------------


 INCAR:
 POTCAR:    PAW_PBE C_h 06Feb2004                 
 POTCAR:    PAW_PBE C_h 06Feb2004                 
 POTCAR:    PAW_PBE H 15Jun2001                   
 POTCAR:    PAW_PBE N_h 06Feb2004                 
 POTCAR:    PAW_PBE O_h 06Feb2004                 
 POTCAR:    PAW_PBE Ru_pv 28Jan2005               

 ----------------------------------------------------------------------------- 
|                                                                             |
|           W    W    AA    RRRRR   N    N  II  N    N   GGGG   !!!           |
|           W    W   A  A   R    R  NN   N  II  NN   N  G    G  !!!           |
|           W    W  A    A  R    R  N N  N  II  N N  N  G       !!!           |
|           W WW W  AAAAAA  RRRRR   N  N N  II  N  N N  G  GGG   !            |
|           WW  WW  A    A  R   R   N   NN  II  N   NN  G    G                |
|           W    W  A    A  R    R  N    N  II  N    N   GGGG   !!!           |
|                                                                             |
|      For optimal performance we recommend to set                            |
|        NCORE= 4 - approx SQRT( number of cores)                             |
|      NCORE specifies how many cores store one orbital (NPAR=cpu/NCORE).     |
|      This setting can  greatly improve the performance of VASP for DFT.     |
|      The default, NPAR=number of cores might be grossly inefficient         |
|      on modern multi-core architectures or massively parallel machines.     |
|      Do your own testing !!!!                                               |
|      Unfortunately you need to use the default for GW and RPA calculations. |
|      (for HF NCORE is supported but not extensively tested yet)             |
|                                                                             |
 ----------------------------------------------------------------------------- 

 POTCAR:    PAW_PBE C_h 06Feb2004                 
   VRHFIN =C: s2p2                                                              
   LEXCH  = PE                                                                  
   EATOM  =   147.1560 eV,   10.8157 Ry                                         
                                                                                
   TITEL  = PAW_PBE C_h 06Feb2004                                               
   LULTRA =        F    use ultrasoft PP ?                                      
   IUNSCR =        1    unscreen: 0-lin 1-nonlin 2-no                           
   RPACOR =    0.800    partial core radius                                     
   POMASS =   12.011; ZVAL   =    4.000    mass and valenz                      
   RCORE  =    1.100    outmost cutoff radius                                   
   RWIGS  =    1.630; RWIGS  =    0.863    wigner-seitz radius (au A)           
   ENMAX  =  700.000; ENMIN  =  500.000 eV                                      
   ICORE  =        2    local potential                                         
   LCOR   =        T    correct aug charges                                     
   LPAW   =        T    paw PP                                                  
   EAUG   =  946.768                                                            
   DEXC   =    0.000                                                            
   RMAX   =    1.128    core radius for proj-oper                               
   RAUG   =    1.300    factor for augmentation sphere                          
   RDEP   =    1.162    radius for radial grids                                 
   RDEPT  =    1.088    core radius for aug-charge                              
                                                                                
   Atomic configuration                                                         
    4 entries                                                                   
     n  l   j            E        occ.                                          
     1  0  0.50      -273.3789   2.0000                                         
     2  0  0.50       -13.7508   2.0000                                         
     2  1  0.50        -5.2854   2.0000                                         
     3  2  1.50        -5.4423   0.0000                                         
   Description                                                                  
     l       E           TYP  RCUT    TYP  RCUT                                 
     0    -13.7508458     23  1.100                                             
     0     -8.2022199     23  1.100                                             
     1     -5.2854383     23  1.100                                             
     1      1.1560700     23  1.100                                             
     2     -5.4423304      7  1.100                                             
  local pseudopotential read in
  partial core-charges read in
  partial kinetic energy density read in
  atomic valenz-charges read in
  non local Contribution for L=           0  read in
    real space projection operators read in
  non local Contribution for L=           0  read in
    real space projection operators read in
  non local Contribution for L=           1  read in
    real space projection operators read in
  non local Contribution for L=           1  read in
    real space projection operators read in
    PAW grid and wavefunctions read in
 
   number of l-projection  operators is LMAX  =           4
   number of lm-projection operators is LMMAX =           8
 
 POTCAR:    PAW_PBE C_h 06Feb2004                 
   VRHFIN =C: s2p2                                                              
   LEXCH  = PE                                                                  
   EATOM  =   147.1560 eV,   10.8157 Ry                                         
                                                                                
   TITEL  = PAW_PBE C_h 06Feb2004                                               
   LULTRA =        F    use ultrasoft PP ?                                      
   IUNSCR =        1    unscreen: 0-lin 1-nonlin 2-no                           
   RPACOR =    0.800    partial core radius                                     
   POMASS =   12.011; ZVAL   =    4.000    mass and valenz                      
   RCORE  =    1.100    outmost cutoff radius                                   
   RWIGS  =    1.630; RWIGS  =    0.863    wigner-seitz radius (au A)           
   ENMAX  =  700.000; ENMIN  =  500.000 eV                                      
   ICORE  =        2    local potential                                         
   LCOR   =        T    correct aug charges                                     
   LPAW   =        T    paw PP                                                  
   EAUG   =  946.768                                                            
   DEXC   =    0.000                                                            
   RMAX   =    1.128    core radius for proj-oper                               
   RAUG   =    1.300    factor for augmentation sphere                          
   RDEP   =    1.162    radius for radial grids                                 
   RDEPT  =    1.088    core radius for aug-charge                              
                                                                                
   Atomic configuration                                                         
    4 entries                                                                   
     n  l   j            E        occ.                                          
     1  0  0.50      -273.3789   2.0000                                         
     2  0  0.50       -13.7508   2.0000                                         
     2  1  0.50        -5.2854   2.0000                                         
     3  2  1.50        -5.4423   0.0000                                         
   Description                                                                  
     l       E           TYP  RCUT    TYP  RCUT                                 
     0    -13.7508458     23  1.100                                             
     0     -8.2022199     23  1.100                                             
     1     -5.2854383     23  1.100                                             
     1      1.1560700     23  1.100                                             
     2     -5.4423304      7  1.100                                             
  local pseudopotential read in
  partial core-charges read in
  partial kinetic energy density read in
  atomic valenz-charges read in
  non local Contribution for L=           0  read in
    real space projection operators read in
  non local Contribution for L=           0  read in
    real space projection operators read in
  non local Contribution for L=           1  read in
    real space projection operators read in
  non local Contribution for L=           1  read in
    real space projection operators read in
    PAW grid and wavefunctions read in
 
   number of l-projection  operators is LMAX  =           4
   number of lm-projection operators is LMMAX =           8
 
 POTCAR:    PAW_PBE H 15Jun2001                   
   VRHFIN =H: ultrasoft test                                                    
   LEXCH  = PE                                                                  
   EATOM  =    12.4884 eV,    0.9179 Ry                                         
                                                                                
   TITEL  = PAW_PBE H 15Jun2001                                                 
   LULTRA =        F    use ultrasoft PP ?                                      
   IUNSCR =        0    unscreen: 0-lin 1-nonlin 2-no                           
   RPACOR =    0.000    partial core radius                                     
   POMASS =    1.000; ZVAL   =    1.000    mass and valenz                      
   RCORE  =    1.100    outmost cutoff radius                                   
   RWIGS  =    0.700; RWIGS  =    0.370    wigner-seitz radius (au A)           
   ENMAX  =  250.000; ENMIN  =  200.000 eV                                      
   RCLOC  =    0.701    cutoff for local pot                                    
   LCOR   =        T    correct aug charges                                     
   LPAW   =        T    paw PP                                                  
   EAUG   =  400.000                                                            
   RMAX   =    1.123    core radius for proj-oper                               
   RAUG   =    1.200    factor for augmentation sphere                          
   RDEP   =    1.112    radius for radial grids                                 
   RDEPT  =    0.926    core radius for aug-charge                              
                                                                                
   Atomic configuration                                                         
    2 entries                                                                   
     n  l   j            E        occ.                                          
     1  0  0.50        -6.4927   1.0000                                         
     2  1  0.50        -3.4015   0.0000                                         
   Description                                                                  
     l       E           TYP  RCUT    TYP  RCUT                                 
     0     -6.4927494     23  1.100                                             
     0      6.8029130     23  1.100                                             
     1     -4.0817478     23  1.100                                             
  local pseudopotential read in
  atomic valenz-charges read in
  non local Contribution for L=           0  read in
    real space projection operators read in
  non local Contribution for L=           0  read in
    real space projection operators read in
  non local Contribution for L=           1  read in
    real space projection operators read in
    PAW grid and wavefunctions read in
 
   number of l-projection  operators is LMAX  =           3
   number of lm-projection operators is LMMAX =           5
 
 POTCAR:    PAW_PBE N_h 06Feb2004                 
   VRHFIN =N: s2p3                                                              
   LEXCH  = PE                                                                  
   EATOM  =   264.5486 eV,   19.4438 Ry                                         
                                                                                
   TITEL  = PAW_PBE N_h 06Feb2004                                               
   LULTRA =        F    use ultrasoft PP ?                                      
   IUNSCR =        1    unscreen: 0-lin 1-nonlin 2-no                           
   RPACOR =    0.800    partial core radius                                     
   POMASS =   14.001; ZVAL   =    5.000    mass and valenz                      
   RCORE  =    1.100    outmost cutoff radius                                   
   RWIGS  =    1.480; RWIGS  =    0.783    wigner-seitz radius (au A)           
   ENMAX  =  700.000; ENMIN  =  500.000 eV                                      
   ICORE  =        2    local potential                                         
   LCOR   =        T    correct aug charges                                     
   LPAW   =        T    paw PP                                                  
   EAUG   =  904.640                                                            
   DEXC   =    0.000                                                            
   RMAX   =    1.127    core radius for proj-oper                               
   RAUG   =    1.300    factor for augmentation sphere                          
   RDEP   =    1.115    radius for radial grids                                 
   RDEPT  =    1.106    core radius for aug-charge                              
                                                                                
   Atomic configuration                                                         
    4 entries                                                                   
     n  l   j            E        occ.                                          
     1  0  0.50      -384.7179   2.0000                                         
     2  0  0.50       -18.5828   2.0000                                         
     2  1  0.50        -7.0898   3.0000                                         
     3  2  1.50        -6.8029   0.0000                                         
   Description                                                                  
     l       E           TYP  RCUT    TYP  RCUT                                 
     0    -18.5828117     23  1.100                                             
     0    -15.0750597     23  1.100                                             
     1     -7.0897851     23  1.100                                             
     1     -1.9663412     23  1.100                                             
     2     -6.8029130      7  1.100                                             
  local pseudopotential read in
  partial core-charges read in
  partial kinetic energy density read in
  kinetic energy density of atom read in
  atomic valenz-charges read in
  non local Contribution for L=           0  read in
    real space projection operators read in
  non local Contribution for L=           0  read in
    real space projection operators read in
  non local Contribution for L=           1  read in
    real space projection operators read in
  non local Contribution for L=           1  read in
    real space projection operators read in
    PAW grid and wavefunctions read in
 
   number of l-projection  operators is LMAX  =           4
   number of lm-projection operators is LMMAX =           8
 
 POTCAR:    PAW_PBE O_h 06Feb2004                 
   VRHFIN =O: s2p4                                                              
   LEXCH  = PE                                                                  
   EATOM  =   432.3788 eV,   31.7789 Ry                                         
                                                                                
   TITEL  = PAW_PBE O_h 06Feb2004                                               
   LULTRA =        F    use ultrasoft PP ?                                      
   IUNSCR =        1    unscreen: 0-lin 1-nonlin 2-no                           
   RPACOR =    0.800    partial core radius                                     
   POMASS =   16.000; ZVAL   =    6.000    mass and valenz                      
   RCORE  =    1.100    outmost cutoff radius                                   
   RWIGS  =    1.400; RWIGS  =    0.741    wigner-seitz radius (au A)           
   ENMAX  =  700.000; ENMIN  =  500.000 eV                                      
   ICORE  =        2    local potential                                         
   LCOR   =        T    correct aug charges                                     
   LPAW   =        T    paw PP                                                  
   EAUG   =  888.804                                                            
   DEXC   =    0.000                                                            
   RMAX   =    1.128    core radius for proj-oper                               
   RAUG   =    1.300    factor for augmentation sphere                          
   RDEP   =    1.125    radius for radial grids                                 
   RDEPT  =    1.088    core radius for aug-charge                              
                                                                                
   Atomic configuration                                                         
    4 entries                                                                   
     n  l   j            E        occ.                                          
     1  0  0.50      -514.6923   2.0000                                         
     2  0  0.50       -23.9615   2.0000                                         
     2  1  0.50        -9.0305   4.0000                                         
     3  2  1.50        -9.5241   0.0000                                         
   Description                                                                  
     l       E           TYP  RCUT    TYP  RCUT                                 
     0    -23.9615319     23  1.100                                             
     0    -25.3221145     23  1.100                                             
     1     -9.0304911     23  1.100                                             
     1     -5.4802209     23  1.100                                             
     2     -9.5240782      7  1.100                                             
  local pseudopotential read in
  partial core-charges read in
  partial kinetic energy density read in
  atomic valenz-charges read in
  non local Contribution for L=           0  read in
    real space projection operators read in
  non local Contribution for L=           0  read in
    real space projection operators read in
  non local Contribution for L=           1  read in
    real space projection operators read in
  non local Contribution for L=           1  read in
    real space projection operators read in
    PAW grid and wavefunctions read in
 
   number of l-projection  operators is LMAX  =           4
   number of lm-projection operators is LMMAX =           8
 
 POTCAR:    PAW_PBE Ru_pv 28Jan2005               
   VRHFIN =Ru: 4p5s4d                                                           
   LEXCH  = PE                                                                  
   EATOM  =  1873.4746 eV,  137.6965 Ry                                         
                                                                                
   TITEL  = PAW_PBE Ru_pv 28Jan2005                                             
   LULTRA =        F    use ultrasoft PP ?                                      
   IUNSCR =        1    unscreen: 0-lin 1-nonlin 2-no                           
   RPACOR =    2.170    partial core radius                                     
   POMASS =  101.070; ZVAL   =   14.000    mass and valenz                      
   RCORE  =    2.500    outmost cutoff radius                                   
   RWIGS  =    2.650; RWIGS  =    1.402    wigner-seitz radius (au A)           
   ENMAX  =  240.049; ENMIN  =  180.037 eV                                      
   ICORE  =        3    local potential                                         
   LCOR   =        T    correct aug charges                                     
   LPAW   =        T    paw PP                                                  
   EAUG   =  430.792                                                            
   DEXC   =    0.000                                                            
   RMAX   =    2.546    core radius for proj-oper                               
   RAUG   =    1.300    factor for augmentation sphere                          
   RDEP   =    2.520    radius for radial grids                                 
   RDEPT  =    2.044    core radius for aug-charge                              
                                                                                
   Atomic configuration                                                         
   11 entries                                                                   
     n  l   j            E        occ.                                          
     1  0  0.50    -21933.2692   2.0000                                         
     2  0  0.50     -3153.4096   2.0000                                         
     2  1  1.50     -2823.9548   6.0000                                         
     3  0  0.50      -555.3322   2.0000                                         
     3  1  1.50      -447.1024   6.0000                                         
     3  2  2.50      -273.0570  10.0000                                         
     4  0  0.50       -76.3589   2.0000                                         
     4  1  1.50       -46.4050   6.0000                                         
     4  2  2.50        -5.2029   7.0000                                         
     5  0  0.50        -4.2392   1.0000                                         
     4  3  2.50        -1.3606   0.0000                                         
   Description                                                                  
     l       E           TYP  RCUT    TYP  RCUT                                 
     1    -46.4050190     23  2.100                                             
     1      4.0817478     23  2.100                                             
     2     -5.2028758     23  2.500                                             
     2     -6.5634584     23  2.500                                             
     0     -4.2392192     23  2.500                                             
     0      7.0918828     23  2.500                                             
     3     -5.4423304     23  2.500                                             
  local pseudopotential read in
  partial core-charges read in
  partial kinetic energy density read in
  atomic valenz-charges read in
  non local Contribution for L=           1  read in
    real space projection operators read in
  non local Contribution for L=           1  read in
    real space projection operators read in
  non local Contribution for L=           2  read in
    real space projection operators read in
  non local Contribution for L=           2  read in
    real space projection operators read in
  non local Contribution for L=           0  read in
    real space projection operators read in
  non local Contribution for L=           0  read in
    real space projection operators read in
    PAW grid and wavefunctions read in
 
   number of l-projection  operators is LMAX  =           6
   number of lm-projection operators is LMMAX =          18
 
 Optimization of the real space projectors (new method)

 maximal supplied QI-value         = 34.20
 optimisation between [QCUT,QGAM] = [ 13.34, 27.02] = [ 49.83,204.46] Ry 
 Optimized for a Real-space Cutoff    1.04 Angstroem

   l    n(q)    QCUT    max X(q) W(low)/X(q) W(high)/X(q)  e(spline) 
   0      8    13.340   134.812    0.72E-04    0.21E-03    0.27E-06
   0      8    13.340    80.524    0.70E-04    0.21E-03    0.27E-06
   1      8    13.340    79.026    0.21E-03    0.16E-03    0.33E-06
   1      8    13.340    45.188    0.20E-03    0.15E-03    0.33E-06
 Optimization of the real space projectors (new method)

 maximal supplied QI-value         = 34.20
 optimisation between [QCUT,QGAM] = [ 13.34, 27.02] = [ 49.83,204.46] Ry 
 Optimized for a Real-space Cutoff    1.04 Angstroem

   l    n(q)    QCUT    max X(q) W(low)/X(q) W(high)/X(q)  e(spline) 
   0      8    13.340   134.812    0.72E-04    0.21E-03    0.27E-06
   0      8    13.340    80.524    0.70E-04    0.21E-03    0.27E-06
   1      8    13.340    79.026    0.21E-03    0.16E-03    0.33E-06
   1      8    13.340    45.188    0.20E-03    0.15E-03    0.33E-06
 Optimization of the real space projectors (new method)

 maximal supplied QI-value         = 34.20
 optimisation between [QCUT,QGAM] = [ 13.34, 27.02] = [ 49.83,204.46] Ry 
 Optimized for a Real-space Cutoff    0.98 Angstroem

   l    n(q)    QCUT    max X(q) W(low)/X(q) W(high)/X(q)  e(spline) 
   0      8    13.340    19.460    0.18E-03    0.41E-04    0.19E-06
   0      8    13.340    12.209    0.17E-03    0.45E-04    0.18E-06
   1      7    13.340     4.655    0.16E-03    0.30E-03    0.14E-06
 Optimization of the real space projectors (new method)

 maximal supplied QI-value         = 34.20
 optimisation between [QCUT,QGAM] = [ 13.34, 27.02] = [ 49.83,204.46] Ry 
 Optimized for a Real-space Cutoff    1.04 Angstroem

   l    n(q)    QCUT    max X(q) W(low)/X(q) W(high)/X(q)  e(spline) 
   0      8    13.340   148.539    0.85E-04    0.19E-03    0.21E-06
   0      8    13.340   106.192    0.84E-04    0.19E-03    0.21E-06
   1      8    13.340    73.877    0.18E-03    0.11E-03    0.36E-06
   1      8    13.340    50.042    0.17E-03    0.11E-03    0.36E-06
 Optimization of the real space projectors (new method)

 maximal supplied QI-value         = 34.20
 optimisation between [QCUT,QGAM] = [ 13.34, 27.02] = [ 49.83,204.46] Ry 
 Optimized for a Real-space Cutoff    0.98 Angstroem

   l    n(q)    QCUT    max X(q) W(low)/X(q) W(high)/X(q)  e(spline) 
   0      8    13.340   280.207    0.16E-03    0.35E-03    0.14E-06
   0      8    13.340   228.978    0.16E-03    0.35E-03    0.14E-06
   1      7    13.340    86.127    0.23E-03    0.25E-04    0.30E-06
   1      7    13.340    65.368    0.22E-03    0.27E-04    0.30E-06
 Optimization of the real space projectors (new method)

 maximal supplied QI-value         = 15.12
 optimisation between [QCUT,QGAM] = [ 13.45, 27.06] = [ 50.69,205.06] Ry 
 Optimized for a Real-space Cutoff    1.40 Angstroem

   l    n(q)    QCUT    max X(q) W(low)/X(q) W(high)/X(q)  e(spline) 
   1     11    13.455     3.180    0.18E-04    0.25E-04    0.55E-07
   1     11    13.455     5.351    0.12E-03    0.15E-03    0.24E-06
   2     10    13.455    66.565    0.13E-03    0.46E-04    0.26E-06
   2     10    13.455    63.466    0.13E-03    0.47E-04    0.27E-06
   0     11    13.455    85.644    0.47E-04    0.16E-04    0.33E-06
   0     11    13.455    44.119    0.43E-04    0.15E-04    0.30E-06
  PAW_PBE C_h 06Feb2004                 :
 energy of atom  1       EATOM= -147.1560
 kinetic energy error for atom=    0.0286 (will be added to EATOM!!)
  PAW_PBE C_h 06Feb2004                 :
 energy of atom  2       EATOM= -147.1560
 kinetic energy error for atom=    0.0286 (will be added to EATOM!!)
  PAW_PBE H 15Jun2001                   :
 energy of atom  3       EATOM=  -12.4884
 kinetic energy error for atom=    0.0002 (will be added to EATOM!!)
  PAW_PBE N_h 06Feb2004                 :
 energy of atom  4       EATOM= -264.5486
 kinetic energy error for atom=    0.0847 (will be added to EATOM!!)
  PAW_PBE O_h 06Feb2004                 :
 energy of atom  5       EATOM= -432.3788
 kinetic energy error for atom=    0.1855 (will be added to EATOM!!)
  PAW_PBE Ru_pv 28Jan2005               :
 energy of atom  6       EATOM=-1873.4746
 kinetic energy error for atom=    0.0017 (will be added to EATOM!!)
 
 
 POSCAR: C C H N O Ru                            
  positions in direct lattice
  velocities in cartesian coordinates
 exchange correlation table for  LEXCH =        8
   RHO(1)=    0.500       N(1)  =     2000
   RHO(2)=  100.500       N(2)  =     4000
 


--------------------------------------------------------------------------------------------------------


 ion  position               nearest neighbor table
   1  0.373  0.406  0.482-  39 1.09  50 1.35  24 1.39
   2  0.438  0.566  0.328-  43 1.09   3 1.39   6 1.39
   3  0.456  0.524  0.381-  38 1.09  49 1.36   2 1.39
   4  0.474  0.615  0.450-  34 1.09  49 1.36   5 1.39
   5  0.456  0.660  0.399-  33 1.09   4 1.39   6 1.40
   6  0.438  0.635  0.337-  32 1.09   2 1.39   5 1.40
   7  0.523  0.330  0.675-  26 1.09   8 1.39  16 1.40
   8  0.497  0.372  0.626-  31 1.09  51 1.36   7 1.39
   9  0.602  0.419  0.606-  51 1.37  10 1.40  14 1.47
  10  0.631  0.378  0.654-  28 1.09  16 1.39   9 1.40
  11  0.740  0.529  0.535-  41 1.09  15 1.39  12 1.40
  12  0.701  0.566  0.490-  37 1.09  13 1.39  11 1.40
  13  0.633  0.554  0.487-  47 1.09  53 1.36  12 1.39
  14  0.640  0.469  0.567-  53 1.37  15 1.40   9 1.47
  15  0.708  0.480  0.573-  36 1.09  11 1.39  14 1.40
  16  0.591  0.332  0.689-  27 1.09  10 1.39   7 1.40
  17  0.362  0.489  0.564-  50 1.37  23 1.40  21 1.46
  18  0.408  0.622  0.691-  48 1.09  22 1.39  19 1.40
  19  0.476  0.626  0.677-  44 1.09  20 1.39  18 1.40
  20  0.503  0.586  0.627-  42 1.09  52 1.36  19 1.39
  21  0.398  0.538  0.604-  52 1.38  22 1.40  17 1.46
  22  0.369  0.578  0.654-  30 1.09  18 1.39  21 1.40
  23  0.293  0.477  0.568-  45 1.09  25 1.39  17 1.40
  24  0.305  0.392  0.484-  40 1.09   1 1.39  25 1.40
  25  0.264  0.428  0.528-  46 1.09  23 1.39  24 1.40
  26  0.490  0.295  0.701-   7 1.09
  27  0.613  0.300  0.727-  16 1.09
  28  0.684  0.381  0.665-  10 1.09
  29  0.542  0.362  0.461-  54 0.97
  30  0.316  0.573  0.664-  22 1.09
  31  0.444  0.371  0.614-   8 1.09
  32  0.424  0.668  0.296-   6 1.09
  33  0.456  0.713  0.410-   5 1.09
  34  0.488  0.634  0.499-   4 1.09
  35  0.569  0.418  0.415-  54 0.98
  36  0.738  0.450  0.608-  15 1.09
  37  0.723  0.605  0.459-  12 1.09
  38  0.456  0.470  0.375-   3 1.09
  39  0.406  0.379  0.449-   1 1.09
  40  0.284  0.353  0.452-  24 1.09
  41  0.793  0.537  0.539-  11 1.09
  42  0.556  0.588  0.614-  20 1.09
  43  0.424  0.543  0.280-   2 1.09
  44  0.509  0.660  0.704-  19 1.09
  45  0.263  0.506  0.603-  23 1.09
  46  0.211  0.418  0.531-  25 1.09
  47  0.601  0.582  0.453-  13 1.09
  48  0.385  0.653  0.729-  18 1.09
  49  0.474  0.548  0.441-   4 1.36   3 1.36  55 2.12
  50  0.402  0.453  0.521-   1 1.35  17 1.37  55 2.06
  51  0.535  0.416  0.592-   8 1.36   9 1.37  55 2.06
  52  0.465  0.543  0.590-  20 1.36  21 1.38  55 2.01
  53  0.601  0.507  0.524-  13 1.36  14 1.37  55 2.08
  54  0.531  0.406  0.442-  29 0.97  35 0.98  55 2.24
  55  0.501  0.481  0.519-  52 2.01  50 2.06  51 2.06  53 2.08  49 2.12  54 2.24
 
  LATTYP: Found a simple cubic cell.
 ALAT       =    20.0000000000
  
  Lattice vectors:
  
 A1 = (  20.0000000000,   0.0000000000,   0.0000000000)
 A2 = (   0.0000000000,  20.0000000000,   0.0000000000)
 A3 = (   0.0000000000,   0.0000000000,  20.0000000000)


Analysis of symmetry for initial positions (statically):
=====================================================================
 Subroutine PRICEL returns:
 Original cell was already a primitive cell.
 

 Routine SETGRP: Setting up the symmetry group for a 
 simple cubic supercell.


 Subroutine GETGRP returns: Found  1 space group operations
 (whereof  1 operations were pure point group operations)
 out of a pool of 48 trial point group operations.


The static configuration has the point symmetry C_1 .


Analysis of symmetry for dynamics (positions and initial velocities):
=====================================================================
 Subroutine PRICEL returns:
 Original cell was already a primitive cell.
 

 Routine SETGRP: Setting up the symmetry group for a 
 simple cubic supercell.


 Subroutine GETGRP returns: Found  1 space group operations
 (whereof  1 operations were pure point group operations)
 out of a pool of 48 trial point group operations.


The dynamic configuration has the point symmetry C_1 .


Analysis of constrained symmetry for selective dynamics:
=====================================================================
 Subroutine PRICEL returns:
 Original cell was already a primitive cell.
 

 Routine SETGRP: Setting up the symmetry group for a 
 simple cubic supercell.


 Subroutine GETGRP returns: Found  1 space group operations
 (whereof  1 operations were pure point group operations)
 out of a pool of 48 trial point group operations.


The constrained configuration has the point symmetry C_1 .


Analysis of magnetic symmetry:
=====================================================================
 Subroutine PRICEL returns:
 Original cell was already a primitive cell.
 

 Subroutine MAGSYM returns: Found  1 space group operations
 (whereof  1 operations were pure point group operations)
 out of a pool of  1 trial space group operations
 (whereof  1 operations were pure point group operations)
 and found also     1 'primitive' translations


The magnetic configuration has the point symmetry C_1 .
 
 
 KPOINTS: K-Points                                

Automatic generation of k-mesh.
Space group operators:
 irot       det(A)        alpha          n_x          n_y          n_z        tau_x        tau_y        tau_z
    1     1.000000     0.000000     1.000000     0.000000     0.000000     0.000000     0.000000     0.000000
 
 Subroutine IBZKPT returns following result:
 ===========================================
 
 Found      1 irreducible k-points:
 
 Following reciprocal coordinates:
            Coordinates               Weight
  0.000000  0.000000  0.000000      1.000000
 
 Following cartesian coordinates:
            Coordinates               Weight
  0.000000  0.000000  0.000000      1.000000
 


--------------------------------------------------------------------------------------------------------




 Dimension of arrays:
   k-points           NKPTS =      1   k-points in BZ     NKDIM =      1   number of bands    NBANDS=    128
   number of dos      NEDOS =    301   number of ions     NIONS =     55
   non local maximal  LDIM  =      6   non local SUM 2l+1 LMDIM =     18
   total plane-waves  NPLWV = ******
   max r-space proj   IRMAX =   8473   max aug-charges    IRDMAX= 268848
   dimension x,y,z NGX =   180 NGY =  180 NGZ =  180
   dimension x,y,z NGXF=   360 NGYF=  360 NGZF=  360
   support grid    NGXF=   720 NGYF=  720 NGZF=  720
   ions per type =               1  24  23   5   1   1
 NGX,Y,Z   is equivalent  to a cutoff of  14.96, 14.96, 14.96 a.u.
 NGXF,Y,Z  is equivalent  to a cutoff of  29.92, 29.92, 29.92 a.u.


 I would recommend the setting:
   dimension x,y,z NGX =   173 NGY =  173 NGZ =  173
 SYSTEM =  c2_oh2_ruthenium_mol                    
 POSCAR =  C C H N O Ru                            

 Startparameter for this run:
   NWRITE =      2    write-flag & timer
   PREC   = accura    normal or accurate (medium, high low for compatibility)
   ISTART =      0    job   : 0-new  1-cont  2-samecut
   ICHARG =      2    charge: 1-file 2-atom 10-const
   ISPIN  =      2    spin polarized calculation?
   LNONCOLLINEAR =      F non collinear calculations
   LSORBIT =      F    spin-orbit coupling
   INIWAV =      1    electr: 0-lowe 1-rand  2-diag
   LASPH  =      F    aspherical Exc in radial PAW
   METAGGA=      F    non-selfconsistent MetaGGA calc.

 Electronic Relaxation 1
   ENCUT  =  700.0 eV  51.45 Ry    7.17 a.u.  43.15 43.15 43.15*2*pi/ulx,y,z
   ENINI  =  700.0     initial cutoff
   ENAUG  =  946.8 eV  augmentation charge cutoff
   NELM   =     60;   NELMIN=  2; NELMDL= -5     # of ELM steps 
   EDIFF  = 0.1E-04   stopping-criterion for ELM
   LREAL  =      T    real-space projection
   NLSPLINE    = F    spline interpolate recip. space projectors
   LCOMPAT=      F    compatible to vasp.4.4
   GGA_COMPAT  = T    GGA compatible to vasp.4.4-vasp.4.6
   LMAXPAW     = -100 max onsite density
   LMAXMIX     =    2 max onsite mixed and CHGCAR
   VOSKOWN=      0    Vosko Wilk Nusair interpolation
   ROPT   =   -0.00025  -0.00025  -0.00025  -0.00025
   ROPT   =   -0.00025  -0.00025
 Ionic relaxation
   EDIFFG = -.1E-01   stopping-criterion for IOM
   NSW    =      0    number of steps for IOM
   NBLOCK =      1;   KBLOCK =      1    inner block; outer block 
   IBRION =     -1    ionic relax: 0-MD 1-quasi-New 2-CG
   NFREE  =      0    steps in history (QN), initial steepest desc. (CG)
   ISIF   =      2    stress and relaxation
   IWAVPR =     10    prediction:  0-non 1-charg 2-wave 3-comb
   ISYM   =      2    0-nonsym 1-usesym 2-fastsym
   LCORR  =      T    Harris-Foulkes like correction to forces

   POTIM  = 0.5000    time-step for ionic-motion
   TEIN   =    0.0    initial temperature
   TEBEG  =    0.0;   TEEND  =   0.0 temperature during run
   SMASS  =  -3.00    Nose mass-parameter (am)
   estimated Nose-frequenzy (Omega)   =  0.10E-29 period in steps =****** mass=  -0.914E-26a.u.
   SCALEE = 1.0000    scale energy and forces
   NPACO  =    256;   APACO  = 16.0  distance and # of slots for P.C.
   PSTRESS=    0.0 pullay stress

  Mass of Ions in am
   POMASS =  12.01 12.01  1.00 14.00 16.00101.07
  Ionic Valenz
   ZVAL   =   4.50  4.00  1.00  5.00  6.00 14.00
  Atomic Wigner-Seitz radii
   RWIGS  =  -1.00 -1.00 -1.00 -1.00 -1.00 -1.00
  virtual crystal weights 
   VCA    =   1.00  1.00  1.00  1.00  1.00  1.00
   NELECT =     166.0000    total number of electrons
   NUPDOWN=       0.0000    fix difference up-down

 DOS related values:
   EMIN   =  10.00;   EMAX   =-10.00  energy-range for DOS
   EFERMI =   0.00
   ISMEAR =     0;   SIGMA  =   0.01  broadening in eV -4-tet -1-fermi 0-gaus

 Electronic relaxation 2 (details)
   IALGO  =     38    algorithm
   LDIAG  =      T    sub-space diagonalisation (order eigenvalues)
   LSUBROT=      F    optimize rotation matrix (better conditioning)
   TURBO    =      0    0=normal 1=particle mesh
   IRESTART =      0    0=no restart 2=restart with 2 vectors
   NREBOOT  =      0    no. of reboots
   NMIN     =      0    reboot dimension
   EREF     =   0.00    reference energy to select bands
   IMIX   =      4    mixing-type and parameters
     AMIX     =   0.40;   BMIX     =  2.00
     AMIX_MAG =   1.60;   BMIX_MAG =  2.00
     AMIN     =   0.10
     WC   =   100.;   INIMIX=   1;  MIXPRE=   1;  MAXMIX= -45

 Intra band minimization:
   WEIMIN = 0.0000     energy-eigenvalue tresh-hold
   EBREAK =  0.20E-07  absolut break condition
   DEPER  =   0.30     relativ break condition  

   TIME   =   0.05     timestep for ELM

  volume/ion in A,a.u.               =     145.45       981.58
  Fermi-wavevector in a.u.,A,eV,Ry     =   0.449864  0.850119  2.753510  0.202377
  Thomas-Fermi vector in A             =   1.430192
 
 Write flags
   LWAVE  =      T    write WAVECAR
   LCHARG =      T    write CHGCAR
   LVTOT  =      F    write LOCPOT, total local potential
   LVHAR  =      F    write LOCPOT, Hartree potential only
   LELF   =      F    write electronic localiz. function (ELF)
   LORBIT =      0    0 simple, 1 ext, 2 COOP (PROOUT)


 Dipole corrections
   LMONO  =      F    monopole corrections only (constant potential shift)
   LDIPOL =      F    correct potential (dipole corrections)
   IDIPOL =      0    1-x, 2-y, 3-z, 4-all directions 
   EPSILON=  1.0000000 bulk dielectric constant

 Core level calculations are selected ICORELEVEL =  2
  CLNT =           1       CLN =     1
  CLL  =           0       CLZ = 0.500
 Exchange correlation treatment:
   GGA     =    --    GGA type
   LEXCH   =     8    internal setting for exchange type
   VOSKOWN=      0    Vosko Wilk Nusair interpolation
   LHFCALC =     F    Hartree Fock is set to
   LHFONE  =     F    Hartree Fock one center treatment
   AEXX    =    0.0000 exact exchange contribution

 Linear response parameters
   LEPSILON=     F    determine dielectric tensor
   LRPA    =     F    only Hartree local field effects (RPA)
   LNABLA  =     F    use nabla operator in PAW spheres
   LVEL    =     F    velocity operator in full k-point grid
   LINTERFAST=   F  fast interpolation
   KINTER  =     0    interpolate to denser k-point grid
   CSHIFT  =0.1000    complex shift for real part using Kramers Kronig
   OMEGAMAX=  -1.0    maximum frequency
   DEG_THRESHOLD= 0.2000000E-02 threshold for treating states as degnerate
   RTIME   =    0.100 relaxation time in fs

 Orbital magnetization related:
   ORBITALMAG=     F  switch on orbital magnetization
   LCHIMAG   =     F  perturbation theory with respect to B field
   DQ        =  0.001000  dq finite difference perturbation B field



--------------------------------------------------------------------------------------------------------


 Static calculation
 charge density and potential will be updated during run
 spin polarized calculation
 Variant of blocked Davidson
 Davidson routine will perform the subspace rotation
 perform sub-space diagonalisation
    after iterative eigenvector-optimisation
 modified Broyden-mixing scheme, WC =      100.0
 initial mixing is a Kerker type mixing with AMIX =  0.4000 and BMIX =      2.0000
 Hartree-type preconditioning will be used
 using additional bands           45
 real space projection scheme for non local part
 use partial core corrections
 calculate Harris-corrections to forces 
   (improved forces if not selfconsistent)
 use gradient corrections 
 use of overlap-Matrix (Vanderbilt PP)
 Gauss-broadening in eV      SIGMA  =   0.01


--------------------------------------------------------------------------------------------------------


  energy-cutoff  :      700.00
  volume of cell :     8000.00
      direct lattice vectors                 reciprocal lattice vectors
    20.000000000  0.000000000  0.000000000     0.050000000  0.000000000  0.000000000
     0.000000000 20.000000000  0.000000000     0.000000000  0.050000000  0.000000000
     0.000000000  0.000000000 20.000000000     0.000000000  0.000000000  0.050000000

  length of vectors
    20.000000000 20.000000000 20.000000000     0.050000000  0.050000000  0.050000000


 
 k-points in units of 2pi/SCALE and weight: K-Points                                
   0.00000000  0.00000000  0.00000000       1.000
 
 k-points in reciprocal lattice and weights: K-Points                                
   0.00000000  0.00000000  0.00000000       1.000
 
 position of ions in fractional coordinates (direct lattice) 
   0.37289802  0.40579857  0.48223443
   0.43793752  0.56561110  0.32757008
   0.45581208  0.52423376  0.38051465
   0.47372925  0.61530131  0.44986522
   0.45595175  0.65963312  0.39935201
   0.43785737  0.63472201  0.33675972
   0.52307882  0.32955005  0.67474498
   0.49710163  0.37190466  0.62618823
   0.60227374  0.41933300  0.60593616
   0.63096398  0.37761922  0.65422416
   0.73964927  0.52855915  0.53463181
   0.70082162  0.56612858  0.49044049
   0.63257913  0.55363620  0.48652424
   0.63952130  0.46927713  0.56732841
   0.70843899  0.47974495  0.57314689
   0.59134754  0.33224398  0.68903016
   0.36211554  0.48866484  0.56417415
   0.40790931  0.62211625  0.69058213
   0.47619960  0.62606623  0.67660612
   0.50295190  0.58590820  0.62668073
   0.39825425  0.53800137  0.60426081
   0.36904589  0.57756069  0.65398228
   0.29334713  0.47671938  0.56830116
   0.30486503  0.39173492  0.48443166
   0.26422003  0.42785518  0.52821594
   0.48989745  0.29510618  0.70074864
   0.61334240  0.29968355  0.72673159
   0.68424189  0.38076917  0.66478776
   0.54225374  0.36233861  0.46129841
   0.31579090  0.57306911  0.66420366
   0.44416348  0.37118871  0.61364770
   0.42392665  0.66833230  0.29622671
   0.45642762  0.71313270  0.40950260
   0.48809132  0.63358802  0.49907234
   0.56912778  0.41808713  0.41480476
   0.73767440  0.44963919  0.60776512
   0.72277620  0.60481012  0.45904817
   0.45570253  0.47012894  0.37468790
   0.40614333  0.37888556  0.44852541
   0.28443799  0.35306162  0.45202062
   0.79326502  0.53703787  0.53892527
   0.55589708  0.58769132  0.61440612
   0.42412006  0.54328620  0.27986105
   0.50894741  0.65984570  0.70400156
   0.26265982  0.50568523  0.60265428
   0.21072272  0.41813760  0.53105039
   0.60090654  0.58197914  0.45254259
   0.38544357  0.65296704  0.72941133
   0.47424490  0.54794204  0.44140236
   0.40180479  0.45306079  0.52108436
   0.53520702  0.41608490  0.59173240
   0.46544808  0.54254992  0.59041194
   0.60138410  0.50650621  0.52397638
   0.53073984  0.40562607  0.44215451
   0.50088568  0.48087016  0.51934246
 
 position of ions in cartesian coordinates  (Angst):
   7.45796037  8.11597149  9.64468853
   8.75875044 11.31222209  6.55140167
   9.11624161 10.48467523  7.61029296
   9.47458509 12.30602619  8.99730442
   9.11903505 13.19266234  7.98704025
   8.75714739 12.69444028  6.73519441
  10.46157638  6.59100110 13.49489953
   9.94203263  7.43809325 12.52376455
  12.04547477  8.38665999 12.11872314
  12.61927957  7.55238445 13.08448329
  14.79298537 10.57118301 10.69263621
  14.01643234 11.32257164  9.80880974
  12.65158254 11.07272405  9.73048485
  12.79042597  9.38554253 11.34656829
  14.16877978  9.59489901 11.46293786
  11.82695089  6.64487969 13.78060313
   7.24231077  9.77329687 11.28348299
   8.15818611 12.44232505 13.81164268
   9.52399198 12.52132464 13.53212240
  10.05903801 11.71816400 12.53361469
   7.96508499 10.76002740 12.08521614
   7.38091777 11.55121387 13.07964553
   5.86694270  9.53438759 11.36602327
   6.09730063  7.83469839  9.68863321
   5.28440067  8.55710369 10.56431882
   9.79794892  5.90212351 14.01497288
  12.26684793  5.99367109 14.53463185
  13.68483783  7.61538334 13.29575520
  10.84507475  7.24677213  9.22596819
   6.31581791 11.46138226 13.28407311
   8.88326966  7.42377422 12.27295397
   8.47853309 13.36664601  5.92453423
   9.12855243 14.26265408  8.19005201
   9.76182647 12.67176037  9.98144677
  11.38255564  8.36174255  8.29609511
  14.75348806  8.99278384 12.15530242
  14.45552391 12.09620238  9.18096343
   9.11405064  9.40257887  7.49375804
   8.12286663  7.57771114  8.97050829
   5.68875982  7.06123239  9.04041232
  15.86530045 10.74075733 10.77850539
  11.11794158 11.75382641 12.28812234
   8.48240128 10.86572407  5.59722093
  10.17894811 13.19691406 14.08003122
   5.25319634 10.11370460 12.05308551
   4.21445446  8.36275200 10.62100772
  12.01813087 11.63958272  9.05085175
   7.70887141 13.05934086 14.58822659
   9.48489793 10.95884088  8.82804729
   8.03609572  9.06121573 10.42168714
  10.70414049  8.32169803 11.83464804
   9.30896151 10.85099836 11.80823871
  12.02768196 10.13012430 10.47952760
  10.61479684  8.11252146  8.84309019
  10.01771355  9.61740316 10.38684921
 


--------------------------------------------------------------------------------------------------------


 k-point  1 :   0.0000 0.0000 0.0000  plane waves:  336427

 maximum and minimum number of plane-waves per node :    336427   336427

 maximum number of plane-waves:    336427
 maximum index in each direction: 
   IXMAX=   43   IYMAX=   43   IZMAX=   43
   IXMIN=  -43   IYMIN=  -43   IZMIN=  -43

 NGX is ok and might be reduce to 174
 NGY is ok and might be reduce to 174
 NGZ is ok and might be reduce to 174

 serial   3D FFT for wavefunctions
 parallel 3D FFT for charge:
    minimum data exchange during FFTs selected (reduces bandwidth)


 total amount of memory used by VASP on root node   877132. kBytes
========================================================================

   base      :      30000. kBytes
   nonlr-proj:      19361. kBytes
   fftplans  :     269516. kBytes
   grid      :     534988. kBytes
   one-center:       1710. kBytes
   wavefun   :      21557. kBytes
 
     INWAV:  cpu time    0.00: real time    0.00
 Broyden mixing: mesh for mixing (old mesh)
   NGX = 87   NGY = 87   NGZ = 87
  (NGX  =360   NGY  =360   NGZ  =360)
  gives a total of 658503 points

 initial charge density was supplied:
 charge density of overlapping atoms calculated
 number of electron     168.5000000 magnetization       0.0000000
 keeping initial charge density in first step


--------------------------------------------------------------------------------------------------------


 Maximum index for non-local projection operator         8166
 Maximum index for augmentation-charges         3214 (set IRDMAX)


--------------------------------------------------------------------------------------------------------


 First call to EWALD:  gamma=   0.089
 Maximum number of real-space cells 3x 3x 3
 Maximum number of reciprocal cells 3x 3x 3

 FEWALD executed in parallel
    FEWALD:  cpu time    0.00: real time    0.00


----------------------------------------- Iteration    1(   1)  ---------------------------------------


    POTLOK:  cpu time    4.71: real time    4.75
    SETDIJ:  cpu time    2.82: real time    2.82
     EDDAV:  cpu time   14.91: real time   15.81
       DOS:  cpu time    0.06: real time    0.07
    --------------------------------------------
      LOOP:  cpu time   22.51: real time   23.45

 eigenvalue-minimisations  :   768
 total energy-change (2. order) : 0.9097693E+03  (-0.5880989E+04)
 number of electron     168.5000000 magnetization       0.0000000
 augmentation part      168.5000000 magnetization       0.0000000

 Free energy of the ion-electron system (eV)
  ---------------------------------------------------
  alpha Z        PSCENC =        12.91687988
  Ewald energy   TEWEN  =     23313.82806265
  -Hartree energ DENC   =    -28915.84906844
  -exchange      EXHF   =         0.00000000
  -V(xc)+E(xc)   XCENC  =       400.96299321
  PAW double counting   =      5890.45591622    -5710.10246236
  entropy T*S    EENTRO =        -0.00000890
  eigenvalues    EBANDS =     -1675.84290378
  atomic energy  EATOM  =      7593.39991119
  ---------------------------------------------------
  free energy    TOTEN  =       909.76931968 eV

  energy without entropy =      909.76932858  energy(sigma->0) =      909.76932413


--------------------------------------------------------------------------------------------------------




----------------------------------------- Iteration    1(   2)  ---------------------------------------


     EDDAV:  cpu time   19.19: real time   20.21
       DOS:  cpu time    0.01: real time    0.01
    --------------------------------------------
      LOOP:  cpu time   19.23: real time   20.26

 eigenvalue-minimisations  :  1024
 total energy-change (2. order) :-0.9790593E+03  (-0.9726980E+03)
 number of electron     168.5000000 magnetization       0.0000000
 augmentation part      168.5000000 magnetization       0.0000000

 Free energy of the ion-electron system (eV)
  ---------------------------------------------------
  alpha Z        PSCENC =        12.91687988
  Ewald energy   TEWEN  =     23313.82806265
  -Hartree energ DENC   =    -28915.84906844
  -exchange      EXHF   =         0.00000000
  -V(xc)+E(xc)   XCENC  =       400.96299321
  PAW double counting   =      5890.45591622    -5710.10246236
  entropy T*S    EENTRO =        -0.00000000
  eigenvalues    EBANDS =     -2654.90222725
  atomic energy  EATOM  =      7593.39991119
  ---------------------------------------------------
  free energy    TOTEN  =       -69.28999489 eV

  energy without entropy =      -69.28999489  energy(sigma->0) =      -69.28999489


--------------------------------------------------------------------------------------------------------




----------------------------------------- Iteration    1(   3)  ---------------------------------------


     EDDAV:  cpu time   15.97: real time   16.97
       DOS:  cpu time    0.01: real time    0.02
    --------------------------------------------
      LOOP:  cpu time   15.98: real time   16.99

 eigenvalue-minimisations  :   832
 total energy-change (2. order) :-0.3232877E+03  (-0.3228498E+03)
 number of electron     168.5000000 magnetization       0.0000000
 augmentation part      168.5000000 magnetization       0.0000000

 Free energy of the ion-electron system (eV)
  ---------------------------------------------------
  alpha Z        PSCENC =        12.91687988
  Ewald energy   TEWEN  =     23313.82806265
  -Hartree energ DENC   =    -28915.84906844
  -exchange      EXHF   =         0.00000000
  -V(xc)+E(xc)   XCENC  =       400.96299321
  PAW double counting   =      5890.45591622    -5710.10246236
  entropy T*S    EENTRO =        -0.00000000
  eigenvalues    EBANDS =     -2978.18990496
  atomic energy  EATOM  =      7593.39991119
  ---------------------------------------------------
  free energy    TOTEN  =      -392.57767260 eV

  energy without entropy =     -392.57767260  energy(sigma->0) =     -392.57767260


--------------------------------------------------------------------------------------------------------




----------------------------------------- Iteration    1(   4)  ---------------------------------------


     EDDAV:  cpu time   12.72: real time   13.42
       DOS:  cpu time    0.01: real time    0.01
    --------------------------------------------
      LOOP:  cpu time   12.73: real time   13.42

 eigenvalue-minimisations  :   640
 total energy-change (2. order) :-0.1892773E+02  (-0.1890579E+02)
 number of electron     168.5000000 magnetization       0.0000000
 augmentation part      168.5000000 magnetization       0.0000000

 Free energy of the ion-electron system (eV)
  ---------------------------------------------------
  alpha Z        PSCENC =        12.91687988
  Ewald energy   TEWEN  =     23313.82806265
  -Hartree energ DENC   =    -28915.84906844
  -exchange      EXHF   =         0.00000000
  -V(xc)+E(xc)   XCENC  =       400.96299321
  PAW double counting   =      5890.45591622    -5710.10246236
  entropy T*S    EENTRO =        -0.00000000
  eigenvalues    EBANDS =     -2997.11763307
  atomic energy  EATOM  =      7593.39991119
  ---------------------------------------------------
  free energy    TOTEN  =      -411.50540071 eV

  energy without entropy =     -411.50540071  energy(sigma->0) =     -411.50540071


--------------------------------------------------------------------------------------------------------




----------------------------------------- Iteration    1(   5)  ---------------------------------------


     EDDAV:  cpu time   16.07: real time   17.02
       DOS:  cpu time    0.01: real time    0.01
    CHARGE:  cpu time    5.22: real time    5.25
    MIXING:  cpu time    0.08: real time    0.08
    --------------------------------------------
      LOOP:  cpu time   21.38: real time   22.36

 eigenvalue-minimisations  :   832
 total energy-change (2. order) :-0.2988285E+00  (-0.2985351E+00)
 number of electron     166.0000000 magnetization      -0.0000000
 augmentation part        3.5124233 magnetization      -0.0008366

 Broyden mixing:
  rms(total) = 0.57607E+01    rms(broyden)= 0.57600E+01
  rms(prec ) = 0.61512E+01
  weight for this iteration     100.00

 Free energy of the ion-electron system (eV)
  ---------------------------------------------------
  alpha Z        PSCENC =        12.91687988
  Ewald energy   TEWEN  =     23313.82806265
  -Hartree energ DENC   =    -28915.84906844
  -exchange      EXHF   =         0.00000000
  -V(xc)+E(xc)   XCENC  =       400.96299321
  PAW double counting   =      5890.45591622    -5710.10246236
  entropy T*S    EENTRO =        -0.00000000
  eigenvalues    EBANDS =     -2997.41646161
  atomic energy  EATOM  =      7593.39991119
  ---------------------------------------------------
  free energy    TOTEN  =      -411.80422925 eV

  energy without entropy =     -411.80422925  energy(sigma->0) =     -411.80422925


--------------------------------------------------------------------------------------------------------




----------------------------------------- Iteration    1(   6)  ---------------------------------------


    POTLOK:  cpu time    4.58: real time    4.60
    SETDIJ:  cpu time    2.80: real time    2.82
     EDDAV:  cpu time   10.95: real time   11.62
       DOS:  cpu time    0.01: real time    0.01
    CHARGE:  cpu time    5.18: real time    5.18
    MIXING:  cpu time    0.15: real time    0.15
    --------------------------------------------
      LOOP:  cpu time   23.68: real time   24.39

 eigenvalue-minimisations  :   512
 total energy-change (2. order) : 0.1815764E+02  (-0.3836934E+02)
 number of electron     166.0000000 magnetization      -0.0000000
 augmentation part        6.5217459 magnetization       0.0000061

 Broyden mixing:
  rms(total) = 0.39164E+01    rms(broyden)= 0.39163E+01
  rms(prec ) = 0.40899E+01
  weight for this iteration     100.00

 eigenvalues of (default mixing * dielectric matrix)
  average eigenvalue GAMMA=   1.0296
  1.0296

 Free energy of the ion-electron system (eV)
  ---------------------------------------------------
  alpha Z        PSCENC =        12.91687988
  Ewald energy   TEWEN  =     23313.82806265
  -Hartree energ DENC   =    -28917.56547989
  -exchange      EXHF   =         0.00000000
  -V(xc)+E(xc)   XCENC  =       406.45567623
  PAW double counting   =     20898.72128321   -20731.50919790
  entropy T*S    EENTRO =        -0.00000000
  eigenvalues    EBANDS =     -2969.89372672
  atomic energy  EATOM  =      7593.39991119
  ---------------------------------------------------
  free energy    TOTEN  =      -393.64659135 eV

  energy without entropy =     -393.64659135  energy(sigma->0) =     -393.64659135


--------------------------------------------------------------------------------------------------------




----------------------------------------- Iteration    1(   7)  ---------------------------------------


    POTLOK:  cpu time    4.57: real time    4.60
    SETDIJ:  cpu time    2.83: real time    2.83
     EDDAV:  cpu time   15.24: real time   16.49
       DOS:  cpu time    0.05: real time    0.05
    CHARGE:  cpu time    5.07: real time    5.07
    MIXING:  cpu time    0.26: real time    0.26
    --------------------------------------------
      LOOP:  cpu time   28.04: real time   29.31

 eigenvalue-minimisations  :   768
 total energy-change (2. order) : 0.1081302E+02  (-0.2301466E+01)
 number of electron     166.0000000 magnetization      -0.0000000
 augmentation part        5.5949130 magnetization      -0.0000224

 Broyden mixing:
  rms(total) = 0.23866E+01    rms(broyden)= 0.23866E+01
  rms(prec ) = 0.24605E+01
  weight for this iteration     100.00

 eigenvalues of (default mixing * dielectric matrix)
  average eigenvalue GAMMA=   1.4089
  0.7509  2.0668

 Free energy of the ion-electron system (eV)
  ---------------------------------------------------
  alpha Z        PSCENC =        12.91687988
  Ewald energy   TEWEN  =     23313.82806265
  -Hartree energ DENC   =    -29046.56394461
  -exchange      EXHF   =         0.00000000
  -V(xc)+E(xc)   XCENC  =       411.77615942
  PAW double counting   =     36081.65873505   -35909.58463249
  entropy T*S    EENTRO =        -0.00000000
  eigenvalues    EBANDS =     -2840.26474314
  atomic energy  EATOM  =      7593.39991119
  ---------------------------------------------------
  free energy    TOTEN  =      -382.83357204 eV

  energy without entropy =     -382.83357204  energy(sigma->0) =     -382.83357204


--------------------------------------------------------------------------------------------------------




----------------------------------------- Iteration    1(   8)  ---------------------------------------


    POTLOK:  cpu time    4.58: real time    4.61
    SETDIJ:  cpu time    2.81: real time    2.81
     EDDAV:  cpu time   15.22: real time   16.44
       DOS:  cpu time    0.05: real time    0.05
    CHARGE:  cpu time    5.26: real time    5.26
    MIXING:  cpu time    0.09: real time    0.09
    --------------------------------------------
      LOOP:  cpu time   28.00: real time   29.25

 eigenvalue-minimisations  :   768
 total energy-change (2. order) : 0.4331465E+01  (-0.1737795E+01)
 number of electron     166.0000000 magnetization      -0.0000000
 augmentation part        4.8737980 magnetization      -0.0000316

 Broyden mixing:
  rms(total) = 0.96613E+00    rms(broyden)= 0.96610E+00
  rms(prec ) = 0.10459E+01
  weight for this iteration     100.00

 eigenvalues of (default mixing * dielectric matrix)
  average eigenvalue GAMMA=   1.4561
  2.6989  0.8347  0.8347

 Free energy of the ion-electron system (eV)
  ---------------------------------------------------
  alpha Z        PSCENC =        12.91687988
  Ewald energy   TEWEN  =     23313.82806265
  -Hartree energ DENC   =    -29198.00603583
  -exchange      EXHF   =         0.00000000
  -V(xc)+E(xc)   XCENC  =       419.59488722
  PAW double counting   =     68532.39922619   -68356.97204466
  entropy T*S    EENTRO =        -0.00000000
  eigenvalues    EBANDS =     -2695.66299353
  atomic energy  EATOM  =      7593.39991119
  ---------------------------------------------------
  free energy    TOTEN  =      -378.50210687 eV

  energy without entropy =     -378.50210687  energy(sigma->0) =     -378.50210687


--------------------------------------------------------------------------------------------------------




----------------------------------------- Iteration    1(   9)  ---------------------------------------


    POTLOK:  cpu time    4.59: real time    4.62
    SETDIJ:  cpu time    2.80: real time    2.80
     EDDAV:  cpu time   15.05: real time   16.28
       DOS:  cpu time    0.05: real time    0.05
    CHARGE:  cpu time    5.20: real time    5.27
    MIXING:  cpu time    0.13: real time    0.13
    --------------------------------------------
      LOOP:  cpu time   27.82: real time   29.15

 eigenvalue-minimisations  :   768
 total energy-change (2. order) : 0.1195942E+01  (-0.4806831E+00)
 number of electron     166.0000000 magnetization      -0.0000000
 augmentation part        5.2189218 magnetization       0.0000211

 Broyden mixing:
  rms(total) = 0.36922E+00    rms(broyden)= 0.36919E+00
  rms(prec ) = 0.40674E+00
  weight for this iteration     100.00

 eigenvalues of (default mixing * dielectric matrix)
  average eigenvalue GAMMA=   1.3236
  2.5235  1.1586  0.8061  0.8061

 Free energy of the ion-electron system (eV)
  ---------------------------------------------------
  alpha Z        PSCENC =        12.91687988
  Ewald energy   TEWEN  =     23313.82806265
  -Hartree energ DENC   =    -29222.14264045
  -exchange      EXHF   =         0.00000000
  -V(xc)+E(xc)   XCENC  =       422.52265340
  PAW double counting   =     82758.44791993   -82584.77393519
  entropy T*S    EENTRO =        -0.00000000
  eigenvalues    EBANDS =     -2671.50501593
  atomic energy  EATOM  =      7593.39991119
  ---------------------------------------------------
  free energy    TOTEN  =      -377.30616452 eV

  energy without entropy =     -377.30616452  energy(sigma->0) =     -377.30616452


--------------------------------------------------------------------------------------------------------




----------------------------------------- Iteration    1(  10)  ---------------------------------------


    POTLOK:  cpu time    4.61: real time    4.63
    SETDIJ:  cpu time    2.80: real time    2.82
     EDDAV:  cpu time   15.25: real time   16.48
       DOS:  cpu time    0.05: real time    0.05
    CHARGE:  cpu time    5.13: real time    5.15
    MIXING:  cpu time    0.21: real time    0.21
    --------------------------------------------
      LOOP:  cpu time   28.05: real time   29.34

 eigenvalue-minimisations  :   768
 total energy-change (2. order) : 0.4403065E-01  (-0.4636061E-01)
 number of electron     166.0000000 magnetization      -0.0000000
 augmentation part        5.3309094 magnetization      -0.0000002

 Broyden mixing:
  rms(total) = 0.25794E+00    rms(broyden)= 0.25793E+00
  rms(prec ) = 0.30050E+00
  weight for this iteration     100.00

 eigenvalues of (default mixing * dielectric matrix)
  average eigenvalue GAMMA=   1.4003
  2.4972  1.8207  0.8539  0.8539  0.9758

 Free energy of the ion-electron system (eV)
  ---------------------------------------------------
  alpha Z        PSCENC =        12.91687988
  Ewald energy   TEWEN  =     23313.82806265
  -Hartree energ DENC   =    -29207.75307245
  -exchange      EXHF   =         0.00000000
  -V(xc)+E(xc)   XCENC  =       422.46458305
  PAW double counting   =     81313.82199362   -81140.74133149
  entropy T*S    EENTRO =        -0.00000000
  eigenvalues    EBANDS =     -2685.19916031
  atomic energy  EATOM  =      7593.39991119
  ---------------------------------------------------
  free energy    TOTEN  =      -377.26213386 eV

  energy without entropy =     -377.26213386  energy(sigma->0) =     -377.26213386


--------------------------------------------------------------------------------------------------------




----------------------------------------- Iteration    1(  11)  ---------------------------------------


    POTLOK:  cpu time    4.60: real time    4.62
    SETDIJ:  cpu time    2.81: real time    2.83
     EDDAV:  cpu time   15.08: real time   16.28
       DOS:  cpu time    0.05: real time    0.05
    CHARGE:  cpu time    5.44: real time    5.46
    MIXING:  cpu time    0.08: real time    0.08
    --------------------------------------------
      LOOP:  cpu time   28.06: real time   29.31

 eigenvalue-minimisations  :   768
 total energy-change (2. order) : 0.1389455E+00  (-0.1597305E-01)
 number of electron     166.0000000 magnetization      -0.0000000
 augmentation part        5.2825491 magnetization       0.0000148

 Broyden mixing:
  rms(total) = 0.10305E+00    rms(broyden)= 0.10305E+00
  rms(prec ) = 0.14603E+00
  weight for this iteration     100.00

 eigenvalues of (default mixing * dielectric matrix)
  average eigenvalue GAMMA=   1.4813
  2.6198  2.6198  0.8679  0.8679  0.9563  0.9563

 Free energy of the ion-electron system (eV)
  ---------------------------------------------------
  alpha Z        PSCENC =        12.91687988
  Ewald energy   TEWEN  =     23313.82806265
  -Hartree energ DENC   =    -29205.97088480
  -exchange      EXHF   =         0.00000000
  -V(xc)+E(xc)   XCENC  =       423.21729658
  PAW double counting   =     81973.74929118   -81800.49477892
  entropy T*S    EENTRO =        -0.00000000
  eigenvalues    EBANDS =     -2687.76896615
  atomic energy  EATOM  =      7593.39991119
  ---------------------------------------------------
  free energy    TOTEN  =      -377.12318839 eV

  energy without entropy =     -377.12318839  energy(sigma->0) =     -377.12318839


--------------------------------------------------------------------------------------------------------




----------------------------------------- Iteration    1(  12)  ---------------------------------------


    POTLOK:  cpu time    4.60: real time    4.62
    SETDIJ:  cpu time    2.82: real time    2.82
     EDDAV:  cpu time   15.26: real time   16.43
       DOS:  cpu time    0.05: real time    0.05
    CHARGE:  cpu time    5.26: real time    5.28
    MIXING:  cpu time    0.17: real time    0.17
    --------------------------------------------
      LOOP:  cpu time   28.14: real time   29.35

 eigenvalue-minimisations  :   768
 total energy-change (2. order) : 0.6694848E-01  (-0.6838731E-02)
 number of electron     166.0000000 magnetization      -0.0000000
 augmentation part        5.2542307 magnetization      -0.0000099

 Broyden mixing:
  rms(total) = 0.64312E-01    rms(broyden)= 0.64309E-01
  rms(prec ) = 0.95910E-01
  weight for this iteration     100.00

 eigenvalues of (default mixing * dielectric matrix)
  average eigenvalue GAMMA=   1.4478
  2.7936  2.7936  1.0373  1.0373  0.8648  0.8648  0.7436

 Free energy of the ion-electron system (eV)
  ---------------------------------------------------
  alpha Z        PSCENC =        12.91687988
  Ewald energy   TEWEN  =     23313.82806265
  -Hartree energ DENC   =    -29199.80094545
  -exchange      EXHF   =         0.00000000
  -V(xc)+E(xc)   XCENC  =       423.76353231
  PAW double counting   =     81575.38559586   -81402.08981569
  entropy T*S    EENTRO =        -0.00000000
  eigenvalues    EBANDS =     -2694.45946066
  atomic energy  EATOM  =      7593.39991119
  ---------------------------------------------------
  free energy    TOTEN  =      -377.05623990 eV

  energy without entropy =     -377.05623990  energy(sigma->0) =     -377.05623990


--------------------------------------------------------------------------------------------------------




----------------------------------------- Iteration    1(  13)  ---------------------------------------


    POTLOK:  cpu time    4.66: real time    4.68
    SETDIJ:  cpu time    2.88: real time    2.90
     EDDAV:  cpu time   15.06: real time   16.30
       DOS:  cpu time    0.05: real time    0.05
    CHARGE:  cpu time    5.33: real time    5.34
    MIXING:  cpu time    0.09: real time    0.09
    --------------------------------------------
      LOOP:  cpu time   28.07: real time   29.35

 eigenvalue-minimisations  :   768
 total energy-change (2. order) : 0.1932252E-01  (-0.1765131E-02)
 number of electron     166.0000000 magnetization       0.0000000
 augmentation part        5.2587570 magnetization       0.0000142

 Broyden mixing:
  rms(total) = 0.46320E-01    rms(broyden)= 0.46320E-01
  rms(prec ) = 0.70016E-01
  weight for this iteration     100.00

 eigenvalues of (default mixing * dielectric matrix)
  average eigenvalue GAMMA=   1.5675
  3.3277  2.9050  1.7873  0.8697  0.8697  1.1303  1.0172  0.6333

 Free energy of the ion-electron system (eV)
  ---------------------------------------------------
  alpha Z        PSCENC =        12.91687988
  Ewald energy   TEWEN  =     23313.82806265
  -Hartree energ DENC   =    -29192.64661936
  -exchange      EXHF   =         0.00000000
  -V(xc)+E(xc)   XCENC  =       424.02338020
  PAW double counting   =     81197.20461494   -81023.99159228
  entropy T*S    EENTRO =        -0.00000000
  eigenvalues    EBANDS =     -2701.77155461
  atomic energy  EATOM  =      7593.39991119
  ---------------------------------------------------
  free energy    TOTEN  =      -377.03691738 eV

  energy without entropy =     -377.03691738  energy(sigma->0) =     -377.03691738


--------------------------------------------------------------------------------------------------------




----------------------------------------- Iteration    1(  14)  ---------------------------------------


    POTLOK:  cpu time    4.66: real time    4.68
    SETDIJ:  cpu time    2.87: real time    2.89
     EDDAV:  cpu time   15.28: real time   16.46
       DOS:  cpu time    0.05: real time    0.05
    CHARGE:  cpu time    5.34: real time    5.36
    MIXING:  cpu time    0.17: real time    0.17
    --------------------------------------------
      LOOP:  cpu time   28.37: real time   29.60

 eigenvalue-minimisations  :   768
 total energy-change (2. order) : 0.1137964E-01  (-0.1491950E-02)
 number of electron     166.0000000 magnetization       0.0000000
 augmentation part        5.2599340 magnetization       0.0000040

 Broyden mixing:
  rms(total) = 0.28391E-01    rms(broyden)= 0.28390E-01
  rms(prec ) = 0.43691E-01
  weight for this iteration     100.00

 eigenvalues of (default mixing * dielectric matrix)
  average eigenvalue GAMMA=   1.6095
  4.3084  2.5925  1.9926  1.3366  0.8636  0.8636  0.9531  0.9531  0.6217

 Free energy of the ion-electron system (eV)
  ---------------------------------------------------
  alpha Z        PSCENC =        12.91687988
  Ewald energy   TEWEN  =     23313.82806265
  -Hartree energ DENC   =    -29183.14919308
  -exchange      EXHF   =         0.00000000
  -V(xc)+E(xc)   XCENC  =       424.29624360
  PAW double counting   =     80995.81937033   -80822.66380173
  entropy T*S    EENTRO =        -0.00000000
  eigenvalues    EBANDS =     -2711.47301059
  atomic energy  EATOM  =      7593.39991119
  ---------------------------------------------------
  free energy    TOTEN  =      -377.02553774 eV

  energy without entropy =     -377.02553774  energy(sigma->0) =     -377.02553774


--------------------------------------------------------------------------------------------------------




----------------------------------------- Iteration    1(  15)  ---------------------------------------


    POTLOK:  cpu time    4.67: real time    4.69
    SETDIJ:  cpu time    2.87: real time    2.88
     EDDAV:  cpu time   15.05: real time   16.25
       DOS:  cpu time    0.05: real time    0.05
    CHARGE:  cpu time    5.36: real time    5.38
    MIXING:  cpu time    0.20: real time    0.20
    --------------------------------------------
      LOOP:  cpu time   28.21: real time   29.45

 eigenvalue-minimisations  :   768
 total energy-change (2. order) :-0.2341364E-02  (-0.4519381E-03)
 number of electron     166.0000000 magnetization       0.0000000
 augmentation part        5.2574173 magnetization      -0.0000074

 Broyden mixing:
  rms(total) = 0.22597E-01    rms(broyden)= 0.22596E-01
  rms(prec ) = 0.31680E-01
  weight for this iteration     100.00

 eigenvalues of (default mixing * dielectric matrix)
  average eigenvalue GAMMA=   1.5995
  4.8015  2.3979  2.1771  1.5357  1.0607  1.0607  0.8616  0.8616  0.6525  0.5860

 Free energy of the ion-electron system (eV)
  ---------------------------------------------------
  alpha Z        PSCENC =        12.91687988
  Ewald energy   TEWEN  =     23313.82806265
  -Hartree energ DENC   =    -29174.94008183
  -exchange      EXHF   =         0.00000000
  -V(xc)+E(xc)   XCENC  =       424.39787562
  PAW double counting   =     81030.10193665   -80856.93459193
  entropy T*S    EENTRO =        -0.00000000
  eigenvalues    EBANDS =     -2719.79787134
  atomic energy  EATOM  =      7593.39991119
  ---------------------------------------------------
  free energy    TOTEN  =      -377.02787911 eV

  energy without entropy =     -377.02787911  energy(sigma->0) =     -377.02787911


--------------------------------------------------------------------------------------------------------




----------------------------------------- Iteration    1(  16)  ---------------------------------------


    POTLOK:  cpu time    4.67: real time    4.69
    SETDIJ:  cpu time    2.87: real time    2.87
     EDDAV:  cpu time   15.17: real time   16.40
       DOS:  cpu time    0.04: real time    0.04
    CHARGE:  cpu time    5.25: real time    5.26
    MIXING:  cpu time    0.16: real time    0.16
    --------------------------------------------
      LOOP:  cpu time   28.16: real time   29.42

 eigenvalue-minimisations  :   768
 total energy-change (2. order) :-0.7359731E-02  (-0.1436514E-03)
 number of electron     166.0000000 magnetization       0.0000000
 augmentation part        5.2583608 magnetization       0.0000056

 Broyden mixing:
  rms(total) = 0.16054E-01    rms(broyden)= 0.16054E-01
  rms(prec ) = 0.21951E-01
  weight for this iteration     100.00

 eigenvalues of (default mixing * dielectric matrix)
  average eigenvalue GAMMA=   1.7027
  5.6567  2.5941  2.5941  1.6747  1.4486  0.8726  0.8726  0.9436  0.9436  0.6273
  0.5017

 Free energy of the ion-electron system (eV)
  ---------------------------------------------------
  alpha Z        PSCENC =        12.91687988
  Ewald energy   TEWEN  =     23313.82806265
  -Hartree energ DENC   =    -29167.66682945
  -exchange      EXHF   =         0.00000000
  -V(xc)+E(xc)   XCENC  =       424.38416356
  PAW double counting   =     81097.17097550   -80923.98839146
  entropy T*S    EENTRO =        -0.00000000
  eigenvalues    EBANDS =     -2727.08001072
  atomic energy  EATOM  =      7593.39991119
  ---------------------------------------------------
  free energy    TOTEN  =      -377.03523884 eV

  energy without entropy =     -377.03523884  energy(sigma->0) =     -377.03523884


--------------------------------------------------------------------------------------------------------




----------------------------------------- Iteration    1(  17)  ---------------------------------------


    POTLOK:  cpu time    4.69: real time    4.70
    SETDIJ:  cpu time    2.89: real time    2.90
     EDDAV:  cpu time   15.06: real time   16.25
       DOS:  cpu time    0.05: real time    0.05
    CHARGE:  cpu time    5.27: real time    5.28
    MIXING:  cpu time    0.26: real time    0.26
    --------------------------------------------
      LOOP:  cpu time   28.21: real time   29.44

 eigenvalue-minimisations  :   768
 total energy-change (2. order) :-0.5617223E-02  (-0.1163619E-03)
 number of electron     166.0000000 magnetization       0.0000000
 augmentation part        5.2601718 magnetization       0.0000027

 Broyden mixing:
  rms(total) = 0.89370E-02    rms(broyden)= 0.89368E-02
  rms(prec ) = 0.12857E-01
  weight for this iteration     100.00

 eigenvalues of (default mixing * dielectric matrix)
  average eigenvalue GAMMA=   1.7440
  6.3866  2.7688  2.7688  1.6014  1.6014  0.8713  0.8713  1.0816  0.9331  0.9331
  0.6260  0.4851

 Free energy of the ion-electron system (eV)
  ---------------------------------------------------
  alpha Z        PSCENC =        12.91687988
  Ewald energy   TEWEN  =     23313.82806265
  -Hartree energ DENC   =    -29161.18277894
  -exchange      EXHF   =         0.00000000
  -V(xc)+E(xc)   XCENC  =       424.34988743
  PAW double counting   =     81142.10063225   -80968.90977283
  entropy T*S    EENTRO =        -0.00000000
  eigenvalues    EBANDS =     -2733.54367769
  atomic energy  EATOM  =      7593.39991119
  ---------------------------------------------------
  free energy    TOTEN  =      -377.04085606 eV

  energy without entropy =     -377.04085606  energy(sigma->0) =     -377.04085606


--------------------------------------------------------------------------------------------------------




----------------------------------------- Iteration    1(  18)  ---------------------------------------


    POTLOK:  cpu time    4.69: real time    4.71
    SETDIJ:  cpu time    2.88: real time    2.88
     EDDAV:  cpu time   15.09: real time   16.27
       DOS:  cpu time    0.05: real time    0.05
    CHARGE:  cpu time    5.29: real time    5.28
    MIXING:  cpu time    0.11: real time    0.11
    --------------------------------------------
      LOOP:  cpu time   28.10: real time   29.29

 eigenvalue-minimisations  :   768
 total energy-change (2. order) :-0.4838725E-02  (-0.5908052E-04)
 number of electron     166.0000000 magnetization       0.0000000
 augmentation part        5.2614650 magnetization       0.0000001

 Broyden mixing:
  rms(total) = 0.69434E-02    rms(broyden)= 0.69433E-02
  rms(prec ) = 0.91538E-02
  weight for this iteration     100.00

 eigenvalues of (default mixing * dielectric matrix)
[...]
 12.584   0.000  21.196   0.000   0.010   0.000   0.008   0.000   0.005   0.000   0.017   0.000   0.015   0.000   0.008   0.000
 21.196   0.000  35.700   0.000   0.016   0.000   0.014   0.000   0.008   0.000   0.029   0.000   0.025   0.000   0.014   0.000
  0.010   0.000   0.016   0.000  -3.550   0.000  -0.001   0.000  -0.001   0.000  -6.380   0.000  -0.002   0.000  -0.001   0.000
  0.008   0.000   0.014   0.000  -0.001   0.000  -3.550   0.000  -0.000   0.000  -0.002   0.000  -6.380   0.000  -0.000   0.000
  0.005   0.000   0.008   0.000  -0.001   0.000  -0.000   0.000  -3.550   0.000  -0.001   0.000  -0.000   0.000  -6.381   0.000
  0.017   0.000   0.029   0.000  -6.380   0.000  -0.002   0.000  -0.001   0.000 -11.446   0.000  -0.003   0.000  -0.002   0.000
  0.015   0.000   0.025   0.000  -0.002   0.000  -6.380   0.000  -0.000   0.000  -0.003   0.000 -11.445   0.000  -0.001   0.000
  0.008   0.000   0.014   0.000  -0.001   0.000  -0.000   0.000  -6.381   0.000  -0.002   0.000  -0.001   0.000 -11.447   0.000
 pseudopotential strength for first ion, spin component:           2
 12.584   0.000  21.196   0.000   0.010   0.000   0.008   0.000   0.005   0.000   0.017   0.000   0.015   0.000   0.008   0.000
 21.196   0.000  35.700   0.000   0.016   0.000   0.014   0.000   0.008   0.000   0.029   0.000   0.025   0.000   0.014   0.000
  0.010   0.000   0.016   0.000  -3.550   0.000  -0.001   0.000  -0.001   0.000  -6.380   0.000  -0.002   0.000  -0.001   0.000
  0.008   0.000   0.014   0.000  -0.001   0.000  -3.550   0.000  -0.000   0.000  -0.002   0.000  -6.380   0.000  -0.000   0.000
  0.005   0.000   0.008   0.000  -0.001   0.000  -0.000   0.000  -3.550   0.000  -0.001   0.000  -0.000   0.000  -6.381   0.000
  0.017   0.000   0.029   0.000  -6.380   0.000  -0.002   0.000  -0.001   0.000 -11.446   0.000  -0.003   0.000  -0.002   0.000
  0.015   0.000   0.025   0.000  -0.002   0.000  -6.380   0.000  -0.000   0.000  -0.003   0.000 -11.445   0.000  -0.001   0.000
  0.008   0.000   0.014   0.000  -0.001   0.000  -0.000   0.000  -6.381   0.000  -0.002   0.000  -0.001   0.000 -11.447   0.000
 total augmentation occupancy for first ion, spin component:           1
  1.583  -0.413   0.659   0.640   0.004  -0.264  -0.253  -0.015
 -0.413   0.569  -0.351  -0.331  -0.043   0.115   0.106   0.019
  0.659  -0.351   2.187   1.263   0.678  -0.368  -0.406  -0.269
  0.640  -0.331   1.263   1.911   0.105  -0.406  -0.253  -0.097
  0.004  -0.043   0.678   0.105   3.084  -0.269  -0.097  -0.585
 -0.264   0.115  -0.368  -0.406  -0.269   0.189   0.050   0.077
 -0.253   0.106  -0.406  -0.253  -0.097   0.050   0.153   0.059
 -0.015   0.019  -0.269  -0.097  -0.585   0.077   0.059   0.187
 total augmentation occupancy for first ion, spin component:           2
  0.000  -0.000   0.000   0.000   0.000  -0.000  -0.000  -0.000
 -0.000   0.000  -0.000  -0.000  -0.000   0.000   0.000  -0.000
  0.000  -0.000   0.000   0.000  -0.000  -0.000  -0.000  -0.000
  0.000  -0.000   0.000   0.000  -0.000  -0.000  -0.000  -0.000
  0.000  -0.000  -0.000  -0.000   0.000   0.000   0.000  -0.000
 -0.000   0.000  -0.000  -0.000   0.000   0.000   0.000   0.000
 -0.000   0.000  -0.000  -0.000   0.000   0.000  -0.000   0.000
 -0.000  -0.000  -0.000  -0.000  -0.000   0.000   0.000   0.000


------------------------ aborting loop because EDIFF is reached ----------------------------------------


    CHARGE:  cpu time    5.23: real time    5.23
    FORLOC:  cpu time    0.54: real time    0.54
    FORNL :  cpu time   19.55: real time   19.61
    STRESS:  cpu time   61.30: real time   61.65
    FORCOR:  cpu time    4.34: real time    4.37
    FORHAR:  cpu time    0.99: real time    1.00
    MIXING:  cpu time    0.20: real time    0.21
    OFIELD:  cpu time    0.00: real time    0.00

  FORCE on cell =-STRESS in cart. coord.  units (eV):
  Direction    XX          YY          ZZ          XY          YZ          ZX
  --------------------------------------------------------------------------------------
  Alpha Z    12.91688    12.91688    12.91688
  Ewald   11202.77983  5603.40767  6507.62612   422.05739 -1530.12182   919.12032
  Hartree 12547.67438  7819.14021  8783.42821   123.07459 -1420.53326   736.20395
  E(xc)    -688.87982  -691.45071  -692.12068     1.44715    -0.04213     0.66079
  Local  -26119.97590-15827.40360-17717.19873  -521.27407  2950.14317 -1655.19957
  n-local   -28.57140   -28.16040   -31.76472     3.66526    -0.73685    -0.73179
  augment    82.51060    84.34351    83.41121     1.26216     0.64337     0.47868
  Kinetic  2975.87332  3013.28327  3039.69649   -30.47304    -0.56804    -0.22940
  Fock        0.00000     0.00000     0.00000     0.00000     0.00000     0.00000
  -------------------------------------------------------------------------------------
  Total     -15.67211   -13.92318   -14.00523    -0.24057    -1.21556     0.30299
  in kB      -3.13869    -2.78842    -2.80486    -0.04818    -0.24344     0.06068
  external pressure =       -2.91 kB  Pullay stress =        0.00 kB


 VOLUME and BASIS-vectors are now :
 -----------------------------------------------------------------------------
  energy-cutoff  :      700.00
  volume of cell :     8000.00
      direct lattice vectors                 reciprocal lattice vectors
    20.000000000  0.000000000  0.000000000     0.050000000  0.000000000  0.000000000
     0.000000000 20.000000000  0.000000000     0.000000000  0.050000000  0.000000000
     0.000000000  0.000000000 20.000000000     0.000000000  0.000000000  0.050000000

  length of vectors
    20.000000000 20.000000000 20.000000000     0.050000000  0.050000000  0.050000000


 FORCES acting on ions
    electron-ion (+dipol)            ewald-force                    non-local-force                 convergence-correction
 -----------------------------------------------------------------------------------------------
   0.166E+03 0.297E+03 0.216E+03   -.169E+03 -.303E+03 -.221E+03   0.248E+01 0.580E+01 0.512E+01   -.224E-04 -.743E-05 -.137E-04
   0.874E+02 -.986E+01 0.334E+03   -.881E+02 0.102E+02 -.336E+03   0.613E+00 -.343E+00 0.186E+01   -.507E-05 -.688E-05 -.414E-04
   0.669E+02 0.793E+02 0.319E+03   -.689E+02 -.810E+02 -.325E+03   0.201E+01 0.179E+01 0.634E+01   -.297E-05 -.264E-04 -.544E-05
   0.321E+01 -.318E+03 0.298E+02   -.344E+01 0.325E+03 -.293E+02   0.244E+00 -.697E+01 -.534E+00   -.106E-05 -.161E-07 0.123E-04
   0.360E+02 -.326E+03 0.105E+03   -.363E+02 0.328E+03 -.106E+03   0.321E+00 -.184E+01 0.617E+00   0.403E-06 0.349E-04 -.166E-04
   0.801E+02 -.208E+03 0.263E+03   -.806E+02 0.209E+03 -.265E+03   0.521E+00 -.121E+01 0.143E+01   -.505E-05 0.331E-04 -.511E-04
   0.743E+02 0.267E+03 -.219E+03   -.746E+02 -.269E+03 0.220E+03   0.365E+00 0.151E+01 -.148E+01   0.881E-05 -.288E-04 0.219E-04
   0.150E+03 0.255E+03 -.165E+03   -.154E+03 -.260E+03 0.169E+03   0.368E+01 0.478E+01 -.398E+01   0.108E-04 0.654E-05 0.181E-06
   -.227E+03 0.123E+03 -.137E+03   0.232E+03 -.124E+03 0.140E+03   -.535E+01 0.118E+01 -.284E+01   0.226E-04 0.141E-04 -.208E-04
   -.258E+03 0.143E+03 -.181E+03   0.259E+03 -.144E+03 0.183E+03   -.127E+01 0.129E+01 -.171E+01   0.228E-04 0.330E-05 -.178E-04
   -.338E+03 -.698E+02 -.946E+00   0.340E+03 0.703E+02 0.871E+00   -.196E+01 -.537E+00 0.523E-01   0.366E-04 0.691E-05 0.228E-05
   -.258E+03 -.192E+03 0.137E+03   0.259E+03 0.194E+03 -.138E+03   -.160E+01 -.124E+01 0.761E+00   0.367E-04 0.145E-04 -.915E-05
   -.181E+03 -.214E+03 0.187E+03   0.185E+03 0.219E+03 -.191E+03   -.348E+01 -.516E+01 0.407E+01   0.306E-05 -.133E-04 -.397E-06
   -.265E+03 0.634E+02 -.923E+02   0.270E+03 -.654E+02 0.953E+02   -.495E+01 0.195E+01 -.298E+01   -.100E-04 -.233E-04 0.510E-05
   -.315E+03 0.610E+02 -.112E+03   0.317E+03 -.609E+02 0.113E+03   -.239E+01 -.155E+00 -.420E+00   -.109E-04 -.185E-04 0.558E-05
   -.122E+03 0.232E+03 -.239E+03   0.123E+03 -.233E+03 0.240E+03   -.660E+00 0.138E+01 -.157E+01   0.241E-04 -.325E-04 0.194E-04
   0.272E+03 -.320E+02 -.106E+03   -.277E+03 0.348E+02 0.110E+03   0.473E+01 -.279E+01 -.362E+01   -.200E-04 0.257E-04 0.212E-04
   0.127E+03 -.218E+03 -.261E+03   -.128E+03 0.219E+03 0.263E+03   0.605E+00 -.148E+01 -.176E+01   -.285E-04 0.271E-04 0.308E-04
   -.745E+02 -.256E+03 -.246E+03   0.749E+02 0.257E+03 0.248E+03   -.467E+00 -.151E+01 -.155E+01   -.117E-04 0.286E-04 0.318E-04
   -.158E+03 -.237E+03 -.197E+03   0.162E+03 0.242E+03 0.201E+03   -.431E+01 -.480E+01 -.415E+01   0.184E-06 -.509E-05 0.111E-04
   0.233E+03 -.966E+02 -.159E+03   -.238E+03 0.983E+02 0.162E+03   0.506E+01 -.168E+01 -.326E+01   -.263E-04 0.335E-05 0.710E-05
   0.265E+03 -.125E+03 -.201E+03   -.266E+03 0.126E+03 0.203E+03   0.108E+01 -.149E+01 -.200E+01   -.221E-04 -.114E-05 -.457E-06
   0.324E+03 -.365E+02 -.119E+03   -.327E+03 0.366E+02 0.119E+03   0.250E+01 -.234E+00 -.788E+00   0.654E-05 0.770E-05 0.178E-04
   0.252E+03 0.226E+03 0.143E+03   -.257E+03 -.227E+03 -.143E+03   0.621E+01 0.211E+01 0.638E+00   -.287E-04 -.169E-04 -.140E-04
   0.340E+03 0.951E+02 0.188E+01   -.343E+03 -.952E+02 -.139E+01   0.294E+01 0.150E+00 -.439E+00   -.151E-04 -.167E-04 0.822E-05
   0.451E+02 0.805E+02 -.637E+02   -.487E+02 -.843E+02 0.666E+02   0.362E+01 0.381E+01 -.289E+01   -.223E-05 -.149E-04 0.112E-04
   -.418E+02 0.695E+02 -.756E+02   0.442E+02 -.731E+02 0.798E+02   -.243E+01 0.361E+01 -.418E+01   0.771E-05 -.164E-04 0.127E-04
   -.993E+02 0.278E+02 -.485E+02   0.105E+03 -.275E+02 0.498E+02   -.582E+01 -.257E+00 -.125E+01   0.757E-05 -.445E-05 0.647E-06
   -.412E+02 0.149E+03 0.160E+02   0.430E+02 -.157E+03 -.126E+02   -.180E+01 0.756E+01 -.336E+01   0.157E-05 0.573E-05 0.537E-05
   0.101E+03 -.226E+02 -.519E+02   -.107E+03 0.222E+02 0.531E+02   0.581E+01 0.395E+00 -.122E+01   -.403E-05 0.351E-05 0.460E-05
   0.797E+02 0.679E+02 -.322E+02   -.855E+02 -.681E+02 0.310E+02   0.584E+01 0.144E+00 0.131E+01   -.397E-05 0.101E-05 0.212E-06
   0.266E+02 -.664E+02 0.814E+02   -.282E+02 0.702E+02 -.859E+02   0.154E+01 -.372E+01 0.448E+01   -.372E-05 0.169E-04 -.233E-04
   0.587E+01 -.110E+03 0.887E+01   -.583E+01 0.116E+03 -.779E+01   -.363E-01 -.589E+01 -.107E+01   0.327E-08 0.221E-04 -.517E-05
   -.143E+02 -.101E+03 -.344E+02   0.158E+02 0.104E+03 0.398E+02   -.155E+01 -.210E+01 -.539E+01   0.331E-06 0.747E-06 0.806E-05
   -.102E+03 0.258E+02 0.116E+03   0.108E+03 -.235E+02 -.121E+03   -.653E+01 -.229E+01 0.484E+01   0.891E-06 0.448E-05 0.443E-05
   -.915E+02 0.385E+02 -.535E+02   0.948E+02 -.417E+02 0.573E+02   -.330E+01 0.324E+01 -.376E+01   0.463E-05 -.469E-05 0.234E-05
   -.661E+02 -.714E+02 0.547E+02   0.685E+02 0.757E+02 -.581E+02   -.246E+01 -.426E+01 0.345E+01   0.135E-04 0.932E-05 -.681E-05
   0.170E+02 0.707E+02 0.889E+02   -.171E+02 -.767E+02 -.897E+02   0.271E-01 0.593E+01 0.739E+00   0.916E-06 -.822E-05 -.450E-07
   -.866E-01 0.938E+02 0.816E+02   0.316E+01 -.964E+02 -.848E+02   -.380E+01 0.314E+01 0.393E+01   -.269E-05 0.160E-06 -.215E-05
   0.616E+02 0.777E+02 0.574E+02   -.638E+02 -.821E+02 -.611E+02   0.239E+01 0.432E+01 0.360E+01   -.930E-05 -.472E-05 -.242E-05
   -.105E+03 -.197E+02 -.452E+01   0.111E+03 0.206E+02 0.499E+01   -.593E+01 -.949E+00 -.467E+00   0.161E-04 0.537E-05 -.998E-06
   -.838E+02 -.641E+02 -.382E+02   0.897E+02 0.643E+02 0.369E+02   -.590E+01 -.249E+00 0.130E+01   0.391E-05 -.276E-05 0.147E-05
   0.285E+02 0.210E+02 0.104E+03   -.301E+02 -.234E+02 -.110E+03   0.152E+01 0.241E+01 0.526E+01   -.334E-05 -.222E-05 -.220E-04
   -.454E+02 -.784E+02 -.699E+02   0.489E+02 0.821E+02 0.730E+02   -.359E+01 -.375E+01 -.305E+01   -.828E-06 0.115E-04 0.112E-04
   0.948E+02 -.333E+02 -.545E+02   -.983E+02 0.365E+02 0.583E+02   0.348E+01 -.315E+01 -.376E+01   -.587E-06 -.417E-06 0.425E-05
   0.106E+03 0.252E+02 -.259E+01   -.112E+03 -.263E+02 0.286E+01   0.596E+01 0.107E+01 -.330E+00   -.128E-04 -.847E-05 0.210E-05
   -.229E+02 -.759E+02 0.739E+02   0.195E+02 0.791E+02 -.776E+02   0.343E+01 -.318E+01 0.379E+01   0.423E-05 0.153E-06 -.323E-05
   0.432E+02 -.659E+02 -.805E+02   -.457E+02 0.693E+02 0.848E+02   0.248E+01 -.343E+01 -.431E+01   -.783E-05 0.126E-04 0.140E-04
   0.294E+02 -.141E+03 0.222E+03   -.244E+02 0.129E+03 -.208E+03   -.502E+01 0.121E+02 -.148E+02   0.625E-05 -.383E-04 0.260E-04
   0.228E+03 0.153E+03 0.532E+02   -.204E+03 -.146E+03 -.521E+02   -.241E+02 -.747E+01 -.149E+01   0.843E-05 0.230E-04 0.125E-04
   -.424E+02 0.233E+03 -.160E+03   0.342E+02 -.222E+03 0.147E+03   0.839E+01 -.115E+02 0.130E+02   0.408E-04 0.310E-04 -.317E-04
   0.381E+02 -.197E+03 -.198E+03   -.300E+02 0.188E+03 0.186E+03   -.806E+01 0.932E+01 0.125E+02   -.289E-04 -.251E-04 -.503E-05
   -.253E+03 -.957E+02 0.676E+02   0.233E+03 0.935E+02 -.692E+02   0.197E+02 0.229E+01 0.165E+01   -.553E-05 -.543E-04 0.276E-04
   -.126E+03 0.404E+03 0.423E+03   0.870E+02 -.387E+03 -.425E+03   0.388E+02 -.175E+02 0.219E+01   0.648E-05 0.326E-04 0.308E-04
   -.826E+02 0.125E+03 0.226E+03   0.817E+02 -.122E+03 -.222E+03   0.541E+00 -.324E+01 -.401E+01   0.342E-04 -.690E-04 0.165E-04
 -----------------------------------------------------------------------------------------------
   -.301E+02 0.232E+02 0.546E+01   0.156E-12 0.284E-13 -.540E-12   0.301E+02 -.232E+02 -.545E+01   0.346E-04 -.651E-04 0.971E-04
 
 
 POSITION                                       TOTAL-FORCE (eV/Angst)
 -----------------------------------------------------------------------------------
      7.45796      8.11597      9.64469        -0.531904     -0.277933     -0.153991
      8.75875     11.31222      6.55140        -0.018000     -0.038501     -0.007683
      9.11624     10.48468      7.61029        -0.004058      0.016001      0.001946
      9.47459     12.30603      8.99730         0.013564      0.002558      0.023096
      9.11904     13.19266      7.98704        -0.001261      0.011253      0.004793
      8.75715     12.69444      6.73519         0.007455      0.005367      0.013858
     10.46158      6.59100     13.49490        -0.012514     -0.009878      0.007454
      9.94203      7.43809     12.52376         0.028742      0.016350     -0.025718
     12.04547      8.38666     12.11872        -0.017286     -0.002136      0.007551
     12.61928      7.55238     13.08448        -0.000047      0.014395     -0.010627
     14.79299     10.57118     10.69264        -0.024332      0.017036     -0.022749
     14.01643     11.32257      9.80881         0.029083     -0.011249      0.014952
     12.65158     11.07272      9.73048        -0.080057      0.001468     -0.024025
     12.79043      9.38554     11.34657        -0.033509     -0.005409     -0.001062
     14.16878      9.59490     11.46294        -0.016422     -0.005777      0.000925
     11.82695      6.64488     13.78060        -0.019436      0.000769     -0.005949
      7.24231      9.77330     11.28348        -0.013284      0.018566      0.032173
      8.15819     12.44233     13.81164         0.026067      0.021516      0.014814
      9.52399     12.52132     13.53212        -0.061379      0.007828      0.022735
     10.05904     11.71816     12.53361         0.007282     -0.065265     -0.069952
      7.96508     10.76003     12.08522         0.113705      0.024251     -0.006636
      7.38092     11.55121     13.07965        -0.078649     -0.061562     -0.043921
      5.86694      9.53439     11.36602        -0.022469     -0.108669     -0.106337
      6.09730      7.83470      9.68863         1.002721      0.227330     -0.018003
      5.28440      8.55710     10.56432         0.022320      0.054894      0.051575
      9.79795      5.90212     14.01497        -0.000048     -0.004997      0.004983
     12.26685      5.99367     14.53463        -0.000631     -0.004644      0.004780
     13.68484      7.61538     13.29576        -0.002550     -0.000370      0.002727
     10.84507      7.24677      9.22597         0.072947     -0.020315      0.004624
      6.31582     11.46138     13.28407        -0.008434      0.025476      0.022670
      8.88327      7.42377     12.27295        -0.001388     -0.021342      0.026866
      8.47853     13.36665      5.92453         0.000012      0.004723     -0.003957
      9.12855     14.26265      8.19005         0.005385      0.001412     -0.000123
      9.76183     12.67176      9.98145         0.007336      0.013447     -0.008574
     11.38256      8.36174      8.29610         0.011953     -0.003637     -0.049223
     14.75349      8.99278     12.15530         0.001059      0.000928      0.000928
     14.45552     12.09620      9.18096        -0.002039      0.002582     -0.004871
      9.11405      9.40258      7.49376         0.020722     -0.000180     -0.034044
      8.12287      7.57771      8.97051        -0.728627      0.605085      0.731100
      5.68876      7.06123      9.04041         0.146877     -0.025833     -0.052226
     15.86530     10.74076     10.77851         0.001443      0.003461      0.001481
     11.11794     11.75383     12.28812         0.001564      0.000226      0.002301
      8.48240     10.86572      5.59722        -0.002739      0.002241     -0.001263
     10.17895     13.19691     14.08003         0.001211      0.006016      0.003730
      5.25320     10.11370     12.05309        -0.009311     -0.001266     -0.003143
      4.21445      8.36275     10.62101         0.028320     -0.049189     -0.053168
     12.01813     11.63958      9.05085         0.012028      0.004500     -0.003562
      7.70887     13.05934     14.58823        -0.007114      0.001876      0.003348
      9.48490     10.95884      8.82805         0.013469      0.082460     -0.087605
      8.03610      9.06122     10.42169         0.305576     -0.265076     -0.352959
     10.70414      8.32170     11.83465         0.099248     -0.071505      0.078710
      9.30896     10.85100     11.80824         0.047215     -0.009838      0.003792
     12.02768     10.13012     10.47953         0.098602      0.042483      0.025131
     10.61480      8.11252      8.84309        -0.075463     -0.005080      0.063471
     10.01771      9.61740     10.38685        -0.352956     -0.166843     -0.025145
 -----------------------------------------------------------------------------------
    total drift:                                0.006350     -0.003537      0.003278


--------------------------------------------------------------------------------------------------------



  FREE ENERGIE OF THE ION-ELECTRON SYSTEM (eV)
  ---------------------------------------------------
  free  energy   TOTEN  =      -377.05729680 eV

  energy  without entropy=     -377.05729680  energy(sigma->0) =     -377.05729680
 


--------------------------------------------------------------------------------------------------------


    POTLOK:  cpu time    7.49: real time    7.52


--------------------------------------------------------------------------------------------------------


 writing wavefunctions
     LOOP+:  cpu time 1039.28: real time 1078.48
    4ORBIT:  cpu time    0.00: real time    0.00

 total amount of memory used by VASP on root node   877132. kBytes
========================================================================

   base      :      30000. kBytes
   nonlr-proj:      19361. kBytes
   fftplans  :     269516. kBytes
   grid      :     534988. kBytes
   one-center:       1710. kBytes
   wavefun   :      21557. kBytes
 
  
  
 General timing and accounting informations for this job:
 ========================================================
  
                  Total CPU time used (sec):     1297.913
                            User time (sec):     1145.151
                          System time (sec):      152.762
                         Elapsed time (sec):     1340.517
  
                   Maximum memory used (kb):     1490096.
                   Average memory used (kb):           0.
  
                          Minor page faults:      7039472
                          Major page faults:            1
                 Voluntary context switches:       278054
