<?xml version="1.0" encoding="ISO-8859-1"?>
<modeling>
 <generator>
  <i name="program" type="string">vasp </i>
  <i name="version" type="string">5.3.5  </i>
  <i name="subversion" type="string">31Mar14 (build Apr 08 2014 12:00:03) complex                          parallel </i>
  <i name="platform" type="string">NSC-NSCPATCH-BUILD02 </i>
  <i name="date" type="string">2017 03 15 </i>
  <i name="time" type="string">19:00:28 </i>
 </generator>
 <incar>
  <i type="string" name="SYSTEM"> c2_oh2_ruthenium_mol</i>
  <i type="int" name="ISTART">     0</i>
  <i type="string" name="PREC">accurate</i>
  <i type="int" name="IALGO">    38</i>
  <i type="logical" name="ADDGRID"> T  </i>
  <i type="int" name="ISPIN">     2</i>
  <i name="BMIX">      2.00000000</i>
  <i type="int" name="ICHARG">     2</i>
  <i name="EDIFF">      0.00001000</i>
  <i name="EDIFFG">     -0.01000000</i>
  <i name="ENCUT">    700.00000000</i>
  <i name="POTIM">      0.50000000</i>
  <i name="NUPDOWN">      0.00000000</i>
  <i name="NELECT">    166.00000000</i>
  <i type="string" name="LREAL"> Auto</i>
  <i name="TIME">      0.05000000</i>
  <i type="int" name="ISMEAR">     0</i>
  <i name="SIGMA">      0.01000000</i>
  <i type="int" name="ICORELEVEL">     2</i>
  <i type="int" name="CLNT">     1</i>
  <i type="int" name="CLN">     1</i>
  <i type="int" name="INCAR     ">     0</i>
  <i name="CLZ">      0.50000000</i>
 </incar>
 <kpoints>
  <generation param="Monkhorst-Pack">
   <v type="int" name="divisions">       1        1        1 </v>
   <v name="usershift">      0.00000000       0.00000000       0.00000000 </v>
   <v name="genvec1">      1.00000000       0.00000000       0.00000000 </v>
   <v name="genvec2">      0.00000000       1.00000000       0.00000000 </v>
   <v name="genvec3">      0.00000000       0.00000000       1.00000000 </v>
   <v name="shift">      0.00000000       0.00000000       0.00000000 </v>
  </generation>
  <varray name="kpointlist" >
   <v>       0.00000000       0.00000000       0.00000000 </v>
  </varray>
  <varray name="weights" >
   <v>       1.00000000 </v>
  </varray>
 </kpoints>
 <parameters>
  <separator name="general" >
   <i type="string" name="SYSTEM">c2_oh2_ruthenium_mol</i>
   <i type="logical" name="LCOMPAT"> F  </i>
  </separator>
  <separator name="electronic" >
   <i type="string" name="PREC">accura</i>
   <i name="ENMAX">    700.00000000</i>
   <i name="ENAUG">    946.76800000</i>
   <i name="EDIFF">      0.00001000</i>
   <i type="int" name="IALGO">    38</i>
   <i type="int" name="IWAVPR">    10</i>
   <i type="int" name="NBANDS">   128</i>
   <i name="NELECT">    166.00000000</i>
   <i type="int" name="TURBO">     0</i>
   <i type="int" name="IRESTART">     0</i>
   <i type="int" name="NREBOOT">     0</i>
   <i type="int" name="NMIN">     0</i>
   <i name="EREF">      0.00000000</i>
   <separator name="electronic smearing" >
    <i type="int" name="ISMEAR">     0</i>
    <i name="SIGMA">      0.01000000</i>
    <i name="KSPACING">      0.50000000</i>
    <i type="logical" name="KGAMMA"> T  </i>
   </separator>
   <separator name="electronic projectors" >
    <i type="logical" name="LREAL"> T  </i>
    <v name="ROPT">     -0.00025000     -0.00025000     -0.00025000     -0.00025000     -0.00025000     -0.00025000</v>
    <i type="int" name="LMAXPAW">  -100</i>
    <i type="int" name="LMAXMIX">     2</i>
    <i type="logical" name="NLSPLINE"> F  </i>
   </separator>
   <separator name="electronic startup" >
    <i type="int" name="ISTART">     0</i>
    <i type="int" name="ICHARG">     2</i>
    <i type="int" name="INIWAV">     1</i>
   </separator>
   <separator name="electronic spin" >
    <i type="int" name="ISPIN">     2</i>
    <i type="logical" name="LNONCOLLINEAR"> F  </i>
    <v name="MAGMOM">      0.00000000      0.00000000      0.00000000      0.00000000      0.00000000      0.00000000      0.00000000      0.00000000      0.00000000      0.00000000      0.00000000      0.00000000      0.00000000      0.00000000      0.00000000      0.00000000      0.00000000      0.00000000      0.00000000      0.00000000
      0.00000000      0.00000000      0.00000000      0.00000000      0.00000000      0.00000000      0.00000000      0.00000000      0.00000000      0.00000000      0.00000000      0.00000000      0.00000000      0.00000000      0.00000000      0.00000000      0.00000000      0.00000000      0.00000000      0.00000000
      0.00000000      0.00000000      0.00000000      0.00000000      0.00000000      0.00000000      0.00000000      0.00000000      0.00000000      0.00000000      0.00000000      0.00000000      0.00000000      0.00000000      0.00000000</v>
    <i name="NUPDOWN">      0.00000000</i>
    <i type="logical" name="LSORBIT"> F  </i>
    <v name="SAXIS">      0.00000000      0.00000000      1.00000000</v>
    <i type="logical" name="LSPIRAL"> F  </i>
    <v name="QSPIRAL">      0.00000000      0.00000000      0.00000000</v>
    <i type="logical" name="LZEROZ"> F  </i>
   </separator>
   <separator name="electronic exchange-correlation" >
    <i type="logical" name="LASPH"> F  </i>
    <i type="logical" name="LMETAGGA"> F  </i>
   </separator>
   <separator name="electronic convergence" >
    <i type="int" name="NELM">    60</i>
    <i type="int" name="NELMDL">    -5</i>
    <i type="int" name="NELMIN">     2</i>
    <i name="ENINI">    700.00000000</i>
    <separator name="electronic convergence detail" >
     <i type="logical" name="LDIAG"> T  </i>
     <i type="logical" name="LSUBROT"> F  </i>
     <i name="WEIMIN">      0.00000000</i>
     <i name="EBREAK">      0.00000002</i>
     <i name="DEPER">      0.30000000</i>
     <i type="int" name="NRMM">     4</i>
     <i name="TIME">      0.05000000</i>
    </separator>
   </separator>
   <separator name="electronic mixer" >
    <i name="AMIX">      0.40000000</i>
    <i name="BMIX">      2.00000000</i>
    <i name="AMIN">      0.10000000</i>
    <i name="AMIX_MAG">      1.60000000</i>
    <i name="BMIX_MAG">      2.00000000</i>
    <separator name="electronic mixer details" >
     <i type="int" name="IMIX">     4</i>
     <i type="int" name="MAXMIX">   -45</i>
     <i name="WC">    100.00000000</i>
     <i type="int" name="INIMIX">     1</i>
     <i type="int" name="MIXPRE">     1</i>
     <i type="int" name="MREMOVE">     5</i>
    </separator>
   </separator>
   <separator name="electronic dipolcorrection" >
    <i type="logical" name="LDIPOL"> F  </i>
    <i type="logical" name="LMONO"> F  </i>
    <i type="int" name="IDIPOL">     0</i>
    <i name="EPSILON">      1.00000000</i>
    <v name="DIPOL">   -100.00000000   -100.00000000   -100.00000000</v>
    <i name="EFIELD">      0.00000000</i>
   </separator>
  </separator>
  <separator name="grids" >
   <i type="int" name="NGX">   180</i>
   <i type="int" name="NGY">   180</i>
   <i type="int" name="NGZ">   180</i>
   <i type="int" name="NGXF">   360</i>
   <i type="int" name="NGYF">   360</i>
   <i type="int" name="NGZF">   360</i>
   <i type="logical" name="ADDGRID"> T  </i>
  </separator>
  <separator name="ionic" >
   <i type="int" name="NSW">     0</i>
   <i type="int" name="IBRION">    -1</i>
   <i type="int" name="ISIF">     2</i>
   <i name="PSTRESS">      0.00000000</i>
   <i name="EDIFFG">     -0.01000000</i>
   <i type="int" name="NFREE">     0</i>
   <i name="POTIM">      0.50000000</i>
   <i name="SMASS">     -3.00000000</i>
   <i name="SCALEE">      1.00000000</i>
  </separator>
  <separator name="ionic md" >
   <i name="TEBEG">      0.00010000</i>
   <i name="TEEND">      0.00010000</i>
   <i type="int" name="NBLOCK">     1</i>
   <i type="int" name="KBLOCK">     1</i>
   <i type="int" name="NPACO">   256</i>
   <i name="APACO">     16.00000000</i>
  </separator>
  <separator name="symmetry" >
   <i type="int" name="ISYM">     2</i>
   <i name="SYMPREC">      0.00001000</i>
  </separator>
  <separator name="dos" >
   <i type="logical" name="LORBIT"> F  </i>
   <v name="RWIGS">     -1.00000000     -1.00000000     -1.00000000     -1.00000000     -1.00000000     -1.00000000</v>
   <i type="int" name="NEDOS">   301</i>
   <i name="EMIN">     10.00000000</i>
   <i name="EMAX">    -10.00000000</i>
   <i name="EFERMI">      0.00000000</i>
  </separator>
  <separator name="writing" >
   <i type="int" name="NWRITE">     2</i>
   <i type="logical" name="LWAVE"> T  </i>
   <i type="logical" name="LCHARG"> T  </i>
   <i type="logical" name="LPARD"> F  </i>
   <i type="logical" name="LVTOT"> F  </i>
   <i type="logical" name="LVHAR"> F  </i>
   <i type="logical" name="LELF"> F  </i>
   <i type="logical" name="LOPTICS"> F  </i>
   <v name="STM">      0.00000000      0.00000000      0.00000000      0.00000000      0.00000000      0.00000000      0.00000000</v>
  </separator>
  <separator name="performance" >
   <i type="int" name="NPAR">    64</i>
   <i type="int" name="NSIM">     4</i>
   <i type="int" name="NBLK">    -1</i>
   <i type="logical" name="LPLANE"> T  </i>
   <i type="logical" name="LSCALAPACK"> T  </i>
   <i type="logical" name="LSCAAWARE"> F  </i>
   <i type="logical" name="LSCALU"> F  </i>
   <i type="logical" name="LASYNC"> F  </i>
   <i type="logical" name="LORBITALREAL"> F  </i>
  </separator>
  <separator name="miscellaneous" >
   <i type="int" name="IDIOT">     3</i>
   <i type="logical" name="LMUSIC"> F  </i>
   <v name="POMASS">     12.01100000     12.01100000      1.00000000     14.00100000     16.00000000    101.07000000</v>
   <v name="DARWINR">      0.00000000      0.00000000      0.00000000      0.00000000      0.00000000      0.00000000</v>
   <v name="DARWINV">      1.00000000      1.00000000      1.00000000      1.00000000      1.00000000      1.00000000</v>
   <i type="logical" name="LCORR"> T  </i>
  </separator>
  <i type="logical" name="GGA_COMPAT"> T  </i>
  <i type="logical" name="LBERRY"> F  </i>
  <i type="int" name="ICORELEVEL">     2</i>
  <i type="int" name="CLNT">     1</i>
  <i type="int" name="CLN">     1</i>
  <i type="int" name="CLL">     0</i>
  <i name="CLZ">      0.50000000</i>
  <i type="logical" name="LDAU"> F  </i>
  <i type="int" name="I_CONSTRAINED_M">     0</i>
  <separator name="electronic exchange-correlation" >
   <i type="string" name="GGA">--</i>
   <i type="int" name="VOSKOWN">     0</i>
   <i type="logical" name="LHFCALC"> F  </i>
   <i type="string" name="PRECFOCK"></i>
   <i type="logical" name="LSYMGRAD"> F  </i>
   <i type="logical" name="LHFONE"> F  </i>
   <i type="logical" name="LRHFCALC"> F  </i>
   <i type="logical" name="LTHOMAS"> F  </i>
   <i type="logical" name="LMODELHF"> F  </i>
   <i name="ENCUT4O">     -1.00000000</i>
   <i type="int" name="EXXOEP">     0</i>
   <i type="int" name="FOURORBIT">     0</i>
   <i name="AEXX">      0.00000000</i>
   <i name="HFALPHA">      0.00000000</i>
   <i name="MCALPHA">      0.00000000</i>
   <i name="ALDAX">      1.00000000</i>
   <i name="AGGAX">      1.00000000</i>
   <i name="ALDAC">      1.00000000</i>
   <i name="AGGAC">      1.00000000</i>
   <i type="int" name="NKREDX">     1</i>
   <i type="int" name="NKREDY">     1</i>
   <i type="int" name="NKREDZ">     1</i>
   <i type="logical" name="SHIFTRED"> F  </i>
   <i type="logical" name="ODDONLY"> F  </i>
   <i type="logical" name="EVENONLY"> F  </i>
   <i type="int" name="LMAXFOCK">     0</i>
   <i type="int" name="NMAXFOCKAE">     0</i>
   <i type="logical" name="LFOCKAEDFT"> F  </i>
   <i name="HFSCREEN">      0.00000000</i>
   <i name="HFSCREENC">      0.00000000</i>
   <i type="int" name="NBANDSGWLOW">     0</i>
  </separator>
  <separator name="vdW DFT" >
   <i type="logical" name="LUSE_VDW"> F  </i>
   <i name="Zab_VDW">     -0.84910000</i>
   <i name="PARAM1">      0.12340000</i>
   <i name="PARAM2">      1.00000000</i>
   <i name="PARAM3">      0.00000000</i>
  </separator>
  <separator name="model GW" >
   <i type="int" name="MODEL_GW">     0</i>
   <i name="MODEL_EPS0">     87.27272727</i>
   <i name="MODEL_ALPHA">      1.00000000</i>
  </separator>
  <separator name="linear response parameters" >
   <i type="logical" name="LEPSILON"> F  </i>
   <i type="logical" name="LRPA"> F  </i>
   <i type="logical" name="LNABLA"> F  </i>
   <i type="logical" name="LVEL"> F  </i>
   <i type="int" name="KINTER">     0</i>
   <i name="CSHIFT">      0.10000000</i>
   <i name="OMEGAMAX">     -1.00000000</i>
   <i name="DEG_THRESHOLD">      0.00200000</i>
  </separator>
  <separator name="orbital magnetization" >
   <i type="logical" name="NUCIND"> F  </i>
   <v name="MAGPOS">      0.00000000      0.00000000      0.00000000</v>
   <i type="logical" name="LNICSALL"> T  </i>
   <i type="logical" name="ORBITALMAG"> F  </i>
   <i type="logical" name="LMAGBLOCH"> F  </i>
   <i type="logical" name="LCHIMAG"> F  </i>
   <i type="logical" name="LGAUGE"> T  </i>
   <i type="int" name="MAGATOM">     0</i>
   <v name="MAGDIPOL">      0.00000000      0.00000000      0.00000000</v>
   <v name="AVECCONST">      0.00000000      0.00000000      0.00000000</v>
  </separator>
  <separator name="response functions" >
   <i type="logical" name="LADDER"> F  </i>
   <i type="logical" name="LFXC"> F  </i>
   <i type="logical" name="LHARTREE"> T  </i>
   <i type="int" name="IBSE">     0</i>
   <i type="logical" name="LTCTE"> F  </i>
   <i type="logical" name="LTETE"> F  </i>
   <i type="logical" name="LTRIPLET"> F  </i>
   <i type="logical" name="LFXCEPS"> F  </i>
   <i type="logical" name="LFXHEG"> F  </i>
   <i type="logical" name="L2ORDER"> F  </i>
   <i type="logical" name="LUSEW"> F  </i>
   <i name="ENCUTGW">     -2.00000000</i>
   <i name="ENCUTGWSOFT">     -2.00000000</i>
   <i name="ENCUTLF">     -1.00000000</i>
   <i type="int" name="LMAXMP2">    -1</i>
   <i name="SCISSOR">      0.00000000</i>
   <i type="int" name="NOMEGA">     0</i>
   <i type="int" name="NOMEGAR">     0</i>
   <i type="int" name="NBANDSGW">    -1</i>
   <i type="int" name="NBANDSO">    -1</i>
   <i type="int" name="NBANDSV">    -1</i>
   <i type="int" name="NELM">     1</i>
   <i type="int" name="DIM">     3</i>
   <i type="int" name="ANTIRES">     0</i>
   <i name="OMEGAMAX">    -30.00000000</i>
   <i name="OMEGAMIN">    -30.00000000</i>
   <i name="OMEGATL">   -200.00000000</i>
   <i type="int" name="OMEGAGRID">     0</i>
   <i name="CSHIFT">     -0.10000000</i>
   <i type="logical" name="SELFENERGY"> F  </i>
   <i type="logical" name="LSPECTRAL"> F  </i>
   <i type="logical" name="ODDONLYGW"> F  </i>
   <i type="logical" name="EVENONLYGW"> F  </i>
   <i type="int" name="NKREDLFX">     1</i>
   <i type="int" name="NKREDLFY">     1</i>
   <i type="int" name="NKREDLFZ">     1</i>
   <i type="int" name="MAXMEM">  1800</i>
   <i type="int" name="TELESCOPE">     0</i>
   <i type="int" name="TAUPAR">     1</i>
  </separator>
  <separator name="External order field" >
   <i name="OFIELD_KAPPA">      0.00000000</i>
   <v name="OFIELD_K">      0.00000000      0.00000000      0.00000000</v>
   <i name="OFIELD_Q6_NEAR">      0.00000000</i>
   <i name="OFIELD_Q6_FAR">      0.00000000</i>
   <i name="OFIELD_A">      0.00000000</i>
  </separator>
 </parameters>
 <atominfo>
  <atoms>      55 </atoms>
  <types>       6 </types>
  <array name="atoms" >
   <dimension dim="1">ion</dimension>
   <field type="string">element</field>
   <field type="int">atomtype</field>
   <set>
    <rc><c>C </c><c>   1</c></rc>
    <rc><c>C </c><c>   2</c></rc>
    <rc><c>C </c><c>   2</c></rc>
    <rc><c>C </c><c>   2</c></rc>
    <rc><c>C </c><c>   2</c></rc>
    <rc><c>C </c><c>   2</c></rc>
    <rc><c>C </c><c>   2</c></rc>
    <rc><c>C </c><c>   2</c></rc>
    <rc><c>C </c><c>   2</c></rc>
    <rc><c>C </c><c>   2</c></rc>
    <rc><c>C </c><c>   2</c></rc>
    <rc><c>C </c><c>   2</c></rc>
    <rc><c>C </c><c>   2</c></rc>
    <rc><c>C </c><c>   2</c></rc>
    <rc><c>C </c><c>   2</c></rc>
    <rc><c>C </c><c>   2</c></rc>
    <rc><c>C </c><c>   2</c></rc>
    <rc><c>C </c><c>   2</c></rc>
    <rc><c>C </c><c>   2</c></rc>
    <rc><c>C </c><c>   2</c></rc>
    <rc><c>C </c><c>   2</c></rc>
    <rc><c>C </c><c>   2</c></rc>
    <rc><c>C </c><c>   2</c></rc>
    <rc><c>C </c><c>   2</c></rc>
    <rc><c>C </c><c>   2</c></rc>
    <rc><c>H </c><c>   3</c></rc>
    <rc><c>H </c><c>   3</c></rc>
    <rc><c>H </c><c>   3</c></rc>
    <rc><c>H </c><c>   3</c></rc>
    <rc><c>H </c><c>   3</c></rc>
    <rc><c>H </c><c>   3</c></rc>
    <rc><c>H </c><c>   3</c></rc>
    <rc><c>H </c><c>   3</c></rc>
    <rc><c>H </c><c>   3</c></rc>
    <rc><c>H </c><c>   3</c></rc>
    <rc><c>H </c><c>   3</c></rc>
    <rc><c>H </c><c>   3</c></rc>
    <rc><c>H </c><c>   3</c></rc>
    <rc><c>H </c><c>   3</c></rc>
    <rc><c>H </c><c>   3</c></rc>
    <rc><c>H </c><c>   3</c></rc>
    <rc><c>H </c><c>   3</c></rc>
    <rc><c>H </c><c>   3</c></rc>
    <rc><c>H </c><c>   3</c></rc>
    <rc><c>H </c><c>   3</c></rc>
    <rc><c>H </c><c>   3</c></rc>
    <rc><c>H </c><c>   3</c></rc>
    <rc><c>H </c><c>   3</c></rc>
    <rc><c>N </c><c>   4</c></rc>
    <rc><c>N </c><c>   4</c></rc>
    <rc><c>N </c><c>   4</c></rc>
    <rc><c>N </c><c>   4</c></rc>
    <rc><c>N </c><c>   4</c></rc>
    <rc><c>O </c><c>   5</c></rc>
    <rc><c>Ru</c><c>   6</c></rc>
   </set>
  </array>
  <array name="atomtypes" >
   <dimension dim="1">type</dimension>
   <field type="int">atomspertype</field>
   <field type="string">element</field>
   <field>mass</field>
   <field>valence</field>
   <field type="string">pseudopotential</field>
   <set>
    <rc><c>   1</c><c>C </c><c>     12.01100000</c><c>      4.50000000</c><c>  PAW_PBE C_h 06Feb2004                 </c></rc>
    <rc><c>  24</c><c>C </c><c>     12.01100000</c><c>      4.00000000</c><c>  PAW_PBE C_h 06Feb2004                 </c></rc>
    <rc><c>  23</c><c>H </c><c>      1.00000000</c><c>      1.00000000</c><c>  PAW_PBE H 15Jun2001                   </c></rc>
    <rc><c>   5</c><c>N </c><c>     14.00100000</c><c>      5.00000000</c><c>  PAW_PBE N_h 06Feb2004                 </c></rc>
    <rc><c>   1</c><c>O </c><c>     16.00000000</c><c>      6.00000000</c><c>  PAW_PBE O_h 06Feb2004                 </c></rc>
    <rc><c>   1</c><c>Ru</c><c>    101.07000000</c><c>     14.00000000</c><c>  PAW_PBE Ru_pv 28Jan2005               </c></rc>
   </set>
  </array>
 </atominfo>
 <structure name="initialpos" >
  <crystal>
   <varray name="basis" >
    <v>      20.00000000       0.00000000       0.00000000 </v>
    <v>       0.00000000      20.00000000       0.00000000 </v>
    <v>       0.00000000       0.00000000      20.00000000 </v>
   </varray>
   <i name="volume">   8000.00000000 </i>
   <varray name="rec_basis" >
    <v>       0.05000000       0.00000000       0.00000000 </v>
    <v>       0.00000000       0.05000000       0.00000000 </v>
    <v>       0.00000000       0.00000000       0.05000000 </v>
   </varray>
  </crystal>
  <varray name="positions" >
   <v>       0.37289802       0.40579857       0.48223443 </v>
   <v>       0.43793752       0.56561110       0.32757008 </v>
   <v>       0.45581208       0.52423376       0.38051465 </v>
   <v>       0.47372925       0.61530131       0.44986522 </v>
   <v>       0.45595175       0.65963312       0.39935201 </v>
   <v>       0.43785737       0.63472201       0.33675972 </v>
   <v>       0.52307882       0.32955005       0.67474498 </v>
   <v>       0.49710163       0.37190466       0.62618823 </v>
   <v>       0.60227374       0.41933300       0.60593616 </v>
   <v>       0.63096398       0.37761922       0.65422416 </v>
   <v>       0.73964927       0.52855915       0.53463181 </v>
   <v>       0.70082162       0.56612858       0.49044049 </v>
   <v>       0.63257913       0.55363620       0.48652424 </v>
   <v>       0.63952130       0.46927713       0.56732841 </v>
   <v>       0.70843899       0.47974495       0.57314689 </v>
   <v>       0.59134754       0.33224398       0.68903016 </v>
   <v>       0.36211554       0.48866484       0.56417415 </v>
   <v>       0.40790931       0.62211625       0.69058213 </v>
   <v>       0.47619960       0.62606623       0.67660612 </v>
   <v>       0.50295190       0.58590820       0.62668073 </v>
   <v>       0.39825425       0.53800137       0.60426081 </v>
   <v>       0.36904589       0.57756069       0.65398228 </v>
   <v>       0.29334713       0.47671938       0.56830116 </v>
   <v>       0.30486503       0.39173492       0.48443166 </v>
   <v>       0.26422003       0.42785518       0.52821594 </v>
   <v>       0.48989745       0.29510618       0.70074864 </v>
   <v>       0.61334240       0.29968355       0.72673159 </v>
   <v>       0.68424189       0.38076917       0.66478776 </v>
   <v>       0.54225374       0.36233861       0.46129841 </v>
   <v>       0.31579090       0.57306911       0.66420366 </v>
   <v>       0.44416348       0.37118871       0.61364770 </v>
   <v>       0.42392665       0.66833230       0.29622671 </v>
   <v>       0.45642762       0.71313270       0.40950260 </v>
   <v>       0.48809132       0.63358802       0.49907234 </v>
   <v>       0.56912778       0.41808713       0.41480476 </v>
   <v>       0.73767440       0.44963919       0.60776512 </v>
   <v>       0.72277620       0.60481012       0.45904817 </v>
   <v>       0.45570253       0.47012894       0.37468790 </v>
   <v>       0.40614333       0.37888556       0.44852541 </v>
   <v>       0.28443799       0.35306162       0.45202062 </v>
   <v>       0.79326502       0.53703787       0.53892527 </v>
   <v>       0.55589708       0.58769132       0.61440612 </v>
   <v>       0.42412006       0.54328620       0.27986105 </v>
   <v>       0.50894741       0.65984570       0.70400156 </v>
   <v>       0.26265982       0.50568523       0.60265428 </v>
   <v>       0.21072272       0.41813760       0.53105039 </v>
   <v>       0.60090654       0.58197914       0.45254259 </v>
   <v>       0.38544357       0.65296704       0.72941133 </v>
   <v>       0.47424490       0.54794204       0.44140236 </v>
   <v>       0.40180479       0.45306079       0.52108436 </v>
   <v>       0.53520702       0.41608490       0.59173240 </v>
   <v>       0.46544808       0.54254992       0.59041194 </v>
   <v>       0.60138410       0.50650621       0.52397638 </v>
   <v>       0.53073984       0.40562607       0.44215451 </v>
   <v>       0.50088568       0.48087016       0.51934246 </v>
  </varray>
  <varray name="selective"  type="logical" >
   <v type="logical" >  T  T  T </v>
   <v type="logical" >  T  T  T </v>
   <v type="logical" >  T  T  T </v>
   <v type="logical" >  T  T  T </v>
   <v type="logical" >  T  T  T </v>
   <v type="logical" >  T  T  T </v>
   <v type="logical" >  T  T  T </v>
   <v type="logical" >  T  T  T </v>
   <v type="logical" >  T  T  T </v>
   <v type="logical" >  T  T  T </v>
   <v type="logical" >  T  T  T </v>
   <v type="logical" >  T  T  T </v>
   <v type="logical" >  T  T  T </v>
   <v type="logical" >  T  T  T </v>
   <v type="logical" >  T  T  T </v>
   <v type="logical" >  T  T  T </v>
   <v type="logical" >  T  T  T </v>
   <v type="logical" >  T  T  T </v>
   <v type="logical" >  T  T  T </v>
   <v type="logical" >  T  T  T </v>
   <v type="logical" >  T  T  T </v>
   <v type="logical" >  T  T  T </v>
   <v type="logical" >  T  T  T </v>
   <v type="logical" >  T  T  T </v>
   <v type="logical" >  T  T  T </v>
   <v type="logical" >  T  T  T </v>
   <v type="logical" >  T  T  T </v>
   <v type="logical" >  T  T  T </v>
   <v type="logical" >  T  T  T </v>
   <v type="logical" >  T  T  T </v>
   <v type="logical" >  T  T  T </v>
   <v type="logical" >  T  T  T </v>
   <v type="logical" >  T  T  T </v>
   <v type="logical" >  T  T  T </v>
   <v type="logical" >  T  T  T </v>
   <v type="logical" >  T  T  T </v>
   <v type="logical" >  T  T  T </v>
   <v type="logical" >  T  T  T </v>
   <v type="logical" >  T  T  T </v>
   <v type="logical" >  T  T  T </v>
   <v type="logical" >  T  T  T </v>
   <v type="logical" >  T  T  T </v>
   <v type="logical" >  T  T  T </v>
   <v type="logical" >  T  T  T </v>
   <v type="logical" >  T  T  T </v>
   <v type="logical" >  T  T  T </v>
   <v type="logical" >  T  T  T </v>
   <v type="logical" >  T  T  T </v>
   <v type="logical" >  T  T  T </v>
   <v type="logical" >  T  T  T </v>
   <v type="logical" >  T  T  T </v>
   <v type="logical" >  T  T  T </v>
   <v type="logical" >  T  T  T </v>
   <v type="logical" >  T  T  T </v>
   <v type="logical" >  T  T  T </v>
  </varray>
  <nose>
   <v>      -3.00000000       0.00000000       0.00010000       0.00010000 </v>
  </nose>
 </structure>
 <calculation>
  <scstep>
   <time name="dav">   14.91   15.81</time>
   <time name="total">   22.51   23.45</time>
   <energy>
    <i name="alphaZ">     12.91687988 </i>
    <i name="ewald">  23313.82806265 </i>
    <i name="hartreedc"> -28915.84906844 </i>
    <i name="XCdc">    400.96299321 </i>
    <i name="pawpsdc">   5890.45591622 </i>
    <i name="pawaedc">  -5710.10246236 </i>
    <i name="eentropy">     -0.00000890 </i>
    <i name="bandstr">  -1675.84290378 </i>
    <i name="atom">   7593.39991119 </i>
    <i name="e_fr_energy">    909.76931968 </i>
    <i name="e_wo_entrp">    909.76932858 </i>
    <i name="e_0_energy">    909.76932413 </i>
   </energy>
  </scstep>
  <scstep>
   <time name="dav">   19.19   20.21</time>
   <time name="total">   19.23   20.26</time>
   <energy>
    <i name="e_fr_energy">    -69.28999489 </i>
    <i name="e_wo_entrp">    -69.28999489 </i>
    <i name="e_0_energy">    -69.28999489 </i>
   </energy>
  </scstep>
  <scstep>
   <time name="dav">   15.97   16.97</time>
   <time name="total">   15.98   16.99</time>
   <energy>
    <i name="e_fr_energy">   -392.57767260 </i>
    <i name="e_wo_entrp">   -392.57767260 </i>
    <i name="e_0_energy">   -392.57767260 </i>
   </energy>
  </scstep>
  <scstep>
   <time name="dav">   12.72   13.42</time>
   <time name="total">   12.73   13.42</time>
   <energy>
    <i name="e_fr_energy">   -411.50540071 </i>
    <i name="e_wo_entrp">   -411.50540071 </i>
    <i name="e_0_energy">   -411.50540071 </i>
   </energy>
  </scstep>
  <scstep>
   <time name="dav">   16.07   17.02</time>
   <time name="total">   21.38   22.36</time>
   <energy>
    <i name="e_fr_energy">   -411.80422925 </i>
    <i name="e_wo_entrp">   -411.80422925 </i>
    <i name="e_0_energy">   -411.80422925 </i>
   </energy>
  </scstep>
  <scstep>
   <time name="dav">   10.95   11.62</time>
   <time name="total">   23.68   24.39</time>
   <energy>
    <i name="e_fr_energy">   -393.64659135 </i>
    <i name="e_wo_entrp">   -393.64659135 </i>
    <i name="e_0_energy">   -393.64659135 </i>
   </energy>
  </scstep>
  <scstep>
   <time name="dav">   15.24   16.49</time>
   <time name="total">   28.04   29.31</time>
   <energy>
    <i name="e_fr_energy">   -382.83357204 </i>
    <i name="e_wo_entrp">   -382.83357204 </i>
    <i name="e_0_energy">   -382.83357204 </i>
   </energy>
  </scstep>
  <scstep>
   <time name="dav">   15.22   16.44</time>
   <time name="total">   28.00   29.25</time>
   <energy>
    <i name="e_fr_energy">   -378.50210687 </i>
    <i name="e_wo_entrp">   -378.50210687 </i>
    <i name="e_0_energy">   -378.50210687 </i>
   </energy>
  </scstep>
  <scstep>
   <time name="dav">   15.05   16.28</time>
   <time name="total">   27.82   29.15</time>
   <energy>
    <i name="e_fr_energy">   -377.30616452 </i>
    <i name="e_wo_entrp">   -377.30616452 </i>
    <i name="e_0_energy">   -377.30616452 </i>
   </energy>
  </scstep>
  <scstep>
   <time name="dav">   15.25   16.48</time>
   <time name="total">   28.05   29.34</time>
   <energy>
    <i name="e_fr_energy">   -377.26213386 </i>
    <i name="e_wo_entrp">   -377.26213386 </i>
    <i name="e_0_energy">   -377.26213386 </i>
   </energy>
  </scstep>
  <scstep>
   <time name="dav">   15.08   16.28</time>
   <time name="total">   28.06   29.31</time>
   <energy>
    <i name="e_fr_energy">   -377.12318839 </i>
    <i name="e_wo_entrp">   -377.12318839 </i>
    <i name="e_0_energy">   -377.12318839 </i>
   </energy>
  </scstep>
  <scstep>
   <time name="dav">   15.26   16.43</time>
   <time name="total">   28.14   29.35</time>
   <energy>
    <i name="e_fr_energy">   -377.05623990 </i>
    <i name="e_wo_entrp">   -377.05623990 </i>
    <i name="e_0_energy">   -377.05623990 </i>
   </energy>
  </scstep>
  <scstep>
   <time name="dav">   15.06   16.30</time>
   <time name="total">   28.07   29.35</time>
   <energy>
    <i name="e_fr_energy">   -377.03691738 </i>
    <i name="e_wo_entrp">   -377.03691738 </i>
    <i name="e_0_energy">   -377.03691738 </i>
   </energy>
  </scstep>
  <scstep>
   <time name="dav">   15.28   16.46</time>
   <time name="total">   28.37   29.60</time>
   <energy>
    <i name="e_fr_energy">   -377.02553774 </i>
    <i name="e_wo_entrp">   -377.02553774 </i>
    <i name="e_0_energy">   -377.02553774 </i>
   </energy>
  </scstep>
  <scstep>
   <time name="dav">   15.05   16.25</time>
   <time name="total">   28.21   29.45</time>
   <energy>
    <i name="e_fr_energy">   -377.02787911 </i>
    <i name="e_wo_entrp">   -377.02787911 </i>
    <i name="e_0_energy">   -377.02787911 </i>
   </energy>
  </scstep>
  <scstep>
   <time name="dav">   15.17   16.40</time>
   <time name="total">   28.16   29.42</time>
   <energy>
    <i name="e_fr_energy">   -377.03523884 </i>
    <i name="e_wo_entrp">   -377.03523884 </i>
    <i name="e_0_energy">   -377.03523884 </i>
   </energy>
  </scstep>
  <scstep>
   <time name="dav">   15.06   16.25</time>
   <time name="total">   28.21   29.44</time>
   <energy>
    <i name="e_fr_energy">   -377.04085606 </i>
    <i name="e_wo_entrp">   -377.04085606 </i>
    <i name="e_0_energy">   -377.04085606 </i>
   </energy>
  </scstep>
  <scstep>
   <time name="dav">   15.09   16.27</time>
   <time name="total">   28.10   29.29</time>
   <energy>
    <i name="e_fr_energy">   -377.04569479 </i>
    <i name="e_wo_entrp">   -377.04569479 </i>
    <i name="e_0_energy">   -377.04569479 </i>
   </energy>
  </scstep>
  <scstep>
   <time name="dav">   15.05   16.25</time>
   <time name="total">   27.99   29.23</time>
   <energy>
    <i name="e_fr_energy">   -377.05043728 </i>
    <i name="e_wo_entrp">   -377.05043728 </i>
    <i name="e_0_energy">   -377.05043728 </i>
   </energy>
  </scstep>
  <scstep>
   <time name="dav">   15.04   16.36</time>
   <time name="total">   27.98   29.44</time>
   <energy>
    <i name="e_fr_energy">   -377.05252323 </i>
    <i name="e_wo_entrp">   -377.05252323 </i>
    <i name="e_0_energy">   -377.05252323 </i>
   </energy>
  </scstep>
  <scstep>
   <time name="dav">   15.07   16.27</time>
   <time name="total">   27.96   29.19</time>
   <energy>
    <i name="e_fr_energy">   -377.05440083 </i>
    <i name="e_wo_entrp">   -377.05440083 </i>
    <i name="e_0_energy">   -377.05440083 </i>
   </energy>
  </scstep>
  <scstep>
   <time name="dav">   15.05   16.24</time>
   <time name="total">   28.16   29.39</time>
   <energy>
    <i name="e_fr_energy">   -377.05586392 </i>
    <i name="e_wo_entrp">   -377.05586392 </i>
    <i name="e_0_energy">   -377.05586392 </i>
   </energy>
  </scstep>
  <scstep>
   <time name="dav">   13.10   14.26</time>
   <time name="total">   25.90   27.10</time>
   <energy>
    <i name="e_fr_energy">   -377.05631600 </i>
    <i name="e_wo_entrp">   -377.05631600 </i>
    <i name="e_0_energy">   -377.05631600 </i>
   </energy>
  </scstep>
  <scstep>
   <time name="dav">   13.10   14.20</time>
   <time name="total">   26.03   27.16</time>
   <energy>
    <i name="e_fr_energy">   -377.05683230 </i>
    <i name="e_wo_entrp">   -377.05683230 </i>
    <i name="e_0_energy">   -377.05683230 </i>
   </energy>
  </scstep>
  <scstep>
   <time name="dav">   13.08   14.20</time>
   <time name="total">   26.14   27.28</time>
   <energy>
    <i name="e_fr_energy">   -377.05700460 </i>
    <i name="e_wo_entrp">   -377.05700460 </i>
    <i name="e_0_energy">   -377.05700460 </i>
   </energy>
  </scstep>
  <scstep>
   <time name="dav">   13.82   15.07</time>
   <time name="total">   26.79   28.06</time>
   <energy>
    <i name="e_fr_energy">   -377.05712161 </i>
    <i name="e_wo_entrp">   -377.05712161 </i>
    <i name="e_0_energy">   -377.05712161 </i>
   </energy>
  </scstep>
  <scstep>
   <time name="dav">   14.11   15.26</time>
   <time name="total">   27.33   28.52</time>
   <energy>
    <i name="e_fr_energy">   -377.05722838 </i>
    <i name="e_wo_entrp">   -377.05722838 </i>
    <i name="e_0_energy">   -377.05722838 </i>
   </energy>
  </scstep>
  <scstep>
   <time name="dav">   13.26   14.44</time>
   <time name="total">   26.30   27.51</time>
   <energy>
    <i name="e_fr_energy">   -377.05726009 </i>
    <i name="e_wo_entrp">   -377.05726009 </i>
    <i name="e_0_energy">   -377.05726009 </i>
   </energy>
  </scstep>
  <scstep>
   <time name="dav">   13.16   14.52</time>
   <time name="total">   26.14   27.55</time>
   <energy>
    <i name="e_fr_energy">   -377.05728148 </i>
    <i name="e_wo_entrp">   -377.05728148 </i>
    <i name="e_0_energy">   -377.05728148 </i>
   </energy>
  </scstep>
  <scstep>
   <time name="dav">   13.16   14.52</time>
   <time name="total">   26.17   27.54</time>
   <energy>
    <i name="e_fr_energy">   -377.05729243 </i>
    <i name="e_wo_entrp">   -377.05729243 </i>
    <i name="e_0_energy">   -377.05729243 </i>
   </energy>
  </scstep>
  <scstep>
   <time name="dav">   13.18   14.45</time>
   <time name="total">   20.78   22.13</time>
   <energy>
    <i name="alphaZ">     12.91687988 </i>
    <i name="ewald">  23313.82806265 </i>
    <i name="hartreedc"> -29150.23970974 </i>
    <i name="XCdc">    424.24151873 </i>
    <i name="pawpsdc">  81143.79781467 </i>
    <i name="pawaedc"> -80970.60300562 </i>
    <i name="eentropy">     -0.00000000 </i>
    <i name="bandstr">  -2744.39876858 </i>
    <i name="atom">   7593.39991119 </i>
    <i name="e_fr_energy">   -377.05729680 </i>
    <i name="e_wo_entrp">   -377.05729680 </i>
    <i name="e_0_energy">   -377.05729680 </i>
   </energy>
  </scstep>
  <structure>
   <crystal>
    <varray name="basis" >
     <v>      20.00000000       0.00000000       0.00000000 </v>
     <v>       0.00000000      20.00000000       0.00000000 </v>
     <v>       0.00000000       0.00000000      20.00000000 </v>
    </varray>
    <i name="volume">   8000.00000000 </i>
    <varray name="rec_basis" >
     <v>       0.05000000       0.00000000       0.00000000 </v>
     <v>       0.00000000       0.05000000       0.00000000 </v>
     <v>       0.00000000       0.00000000       0.05000000 </v>
    </varray>
   </crystal>
   <varray name="positions" >
    <v>       0.37289802       0.40579857       0.48223443 </v>
    <v>       0.43793752       0.56561110       0.32757008 </v>
    <v>       0.45581208       0.52423376       0.38051465 </v>
    <v>       0.47372925       0.61530131       0.44986522 </v>
    <v>       0.45595175       0.65963312       0.39935201 </v>
    <v>       0.43785737       0.63472201       0.33675972 </v>
    <v>       0.52307882       0.32955005       0.67474498 </v>
    <v>       0.49710163       0.37190466       0.62618823 </v>
    <v>       0.60227374       0.41933300       0.60593616 </v>
    <v>       0.63096398       0.37761922       0.65422416 </v>
    <v>       0.73964927       0.52855915       0.53463181 </v>
    <v>       0.70082162       0.56612858       0.49044049 </v>
    <v>       0.63257913       0.55363620       0.48652424 </v>
    <v>       0.63952130       0.46927713       0.56732841 </v>
    <v>       0.70843899       0.47974495       0.57314689 </v>
    <v>       0.59134754       0.33224398       0.68903016 </v>
    <v>       0.36211554       0.48866484       0.56417415 </v>
    <v>       0.40790931       0.62211625       0.69058213 </v>
    <v>       0.47619960       0.62606623       0.67660612 </v>
    <v>       0.50295190       0.58590820       0.62668073 </v>
    <v>       0.39825425       0.53800137       0.60426081 </v>
    <v>       0.36904589       0.57756069       0.65398228 </v>
    <v>       0.29334713       0.47671938       0.56830116 </v>
    <v>       0.30486503       0.39173492       0.48443166 </v>
    <v>       0.26422003       0.42785518       0.52821594 </v>
    <v>       0.48989745       0.29510618       0.70074864 </v>
    <v>       0.61334240       0.29968355       0.72673159 </v>
    <v>       0.68424189       0.38076917       0.66478776 </v>
    <v>       0.54225374       0.36233861       0.46129841 </v>
    <v>       0.31579090       0.57306911       0.66420366 </v>
    <v>       0.44416348       0.37118871       0.61364770 </v>
    <v>       0.42392665       0.66833230       0.29622671 </v>
    <v>       0.45642762       0.71313270       0.40950260 </v>
    <v>       0.48809132       0.63358802       0.49907234 </v>
    <v>       0.56912778       0.41808713       0.41480476 </v>
    <v>       0.73767440       0.44963919       0.60776512 </v>
    <v>       0.72277620       0.60481012       0.45904817 </v>
    <v>       0.45570253       0.47012894       0.37468790 </v>
    <v>       0.40614333       0.37888556       0.44852541 </v>
    <v>       0.28443799       0.35306162       0.45202062 </v>
    <v>       0.79326502       0.53703787       0.53892527 </v>
    <v>       0.55589708       0.58769132       0.61440612 </v>
    <v>       0.42412006       0.54328620       0.27986105 </v>
    <v>       0.50894741       0.65984570       0.70400156 </v>
    <v>       0.26265982       0.50568523       0.60265428 </v>
    <v>       0.21072272       0.41813760       0.53105039 </v>
    <v>       0.60090654       0.58197914       0.45254259 </v>
    <v>       0.38544357       0.65296704       0.72941133 </v>
    <v>       0.47424490       0.54794204       0.44140236 </v>
    <v>       0.40180479       0.45306079       0.52108436 </v>
    <v>       0.53520702       0.41608490       0.59173240 </v>
    <v>       0.46544808       0.54254992       0.59041194 </v>
    <v>       0.60138410       0.50650621       0.52397638 </v>
    <v>       0.53073984       0.40562607       0.44215451 </v>
    <v>       0.50088568       0.48087016       0.51934246 </v>
   </varray>
  </structure>
  <varray name="forces" >
   <v>      -0.53190394      -0.27793312      -0.15399059 </v>
   <v>      -0.01800027      -0.03850098      -0.00768255 </v>
   <v>      -0.00405780       0.01600091       0.00194620 </v>
   <v>       0.01356408       0.00255763       0.02309569 </v>
   <v>      -0.00126101       0.01125265       0.00479301 </v>
   <v>       0.00745492       0.00536673       0.01385791 </v>
   <v>      -0.01251383      -0.00987817       0.00745418 </v>
   <v>       0.02874177       0.01634956      -0.02571768 </v>
   <v>      -0.01728611      -0.00213605       0.00755058 </v>
   <v>      -0.00004721       0.01439496      -0.01062697 </v>
   <v>      -0.02433194       0.01703639      -0.02274935 </v>
   <v>       0.02908283      -0.01124886       0.01495233 </v>
   <v>      -0.08005679       0.00146823      -0.02402455 </v>
   <v>      -0.03350908      -0.00540882      -0.00106190 </v>
   <v>      -0.01642198      -0.00577738       0.00092545 </v>
   <v>      -0.01943586       0.00076933      -0.00594866 </v>
   <v>      -0.01328351       0.01856553       0.03217293 </v>
   <v>       0.02606720       0.02151583       0.01481412 </v>
   <v>      -0.06137867       0.00782778       0.02273485 </v>
   <v>       0.00728205      -0.06526492      -0.06995240 </v>
   <v>       0.11370536       0.02425082      -0.00663604 </v>
   <v>      -0.07864943      -0.06156201      -0.04392110 </v>
   <v>      -0.02246867      -0.10866935      -0.10633711 </v>
   <v>       1.00272071       0.22732989      -0.01800252 </v>
   <v>       0.02232009       0.05489353       0.05157464 </v>
   <v>      -0.00004785      -0.00499673       0.00498291 </v>
   <v>      -0.00063078      -0.00464439       0.00478019 </v>
   <v>      -0.00255045      -0.00037021       0.00272692 </v>
   <v>       0.07294687      -0.02031550       0.00462430 </v>
   <v>      -0.00843382       0.02547607       0.02266953 </v>
   <v>      -0.00138752      -0.02134220       0.02686582 </v>
   <v>       0.00001195       0.00472335      -0.00395730 </v>
   <v>       0.00538513       0.00141203      -0.00012320 </v>
   <v>       0.00733632       0.01344656      -0.00857401 </v>
   <v>       0.01195267      -0.00363717      -0.04922300 </v>
   <v>       0.00105875       0.00092760       0.00092835 </v>
   <v>      -0.00203882       0.00258210      -0.00487140 </v>
   <v>       0.02072161      -0.00017961      -0.03404434 </v>
   <v>      -0.72862724       0.60508483       0.73110030 </v>
   <v>       0.14687738      -0.02583281      -0.05222556 </v>
   <v>       0.00144322       0.00346058       0.00148147 </v>
   <v>       0.00156376       0.00022634       0.00230057 </v>
   <v>      -0.00273882       0.00224064      -0.00126335 </v>
   <v>       0.00121142       0.00601583       0.00373019 </v>
   <v>      -0.00931096      -0.00126634      -0.00314276 </v>
   <v>       0.02832007      -0.04918882      -0.05316793 </v>
   <v>       0.01202763       0.00450035      -0.00356183 </v>
   <v>      -0.00711439       0.00187640       0.00334818 </v>
   <v>       0.01346907       0.08246036      -0.08760507 </v>
   <v>       0.30557573      -0.26507610      -0.35295853 </v>
   <v>       0.09924830      -0.07150544       0.07870999 </v>
   <v>       0.04721489      -0.00983825       0.00379161 </v>
   <v>       0.09860204       0.04248340       0.02513103 </v>
   <v>      -0.07546289      -0.00508045       0.06347143 </v>
   <v>      -0.35295620      -0.16684256      -0.02514499 </v>
  </varray>
  <varray name="stress" >
   <v>      -3.13868680      -0.04817988       0.06068108 </v>
   <v>      -0.04817986      -2.78842463      -0.24344367 </v>
   <v>       0.06068106      -0.24344369      -2.80485746 </v>
  </varray>
  <energy>
   <i name="e_fr_energy">   -377.05729680 </i>
   <i name="e_wo_entrp">   -377.05729680 </i>
   <i name="e_0_energy">     -0.00000000 </i>
  </energy>
  <time name="totalsc"> 1039.28 1078.48</time>
  <eigenvalues>
   <array>
    <dimension dim="1">band</dimension>
    <dimension dim="2">kpoint</dimension>
    <dimension dim="3">spin</dimension>
    <field>eigene</field>
    <field>occ</field>
    <set>
     <set comment="spin 1">
      <set comment="kpoint 1">
       <r>  -49.1788    1.0000 </r>
       <r>  -49.0278    1.0000 </r>
       <r>  -48.8314    1.0000 </r>
       <r>  -29.2870    1.0000 </r>
       <r>  -27.9069    1.0000 </r>
       <r>  -26.8778    1.0000 </r>
       <r>  -26.6758    1.0000 </r>
       <r>  -26.2395    1.0000 </r>
       <r>  -26.1749    1.0000 </r>
       <r>  -23.3839    1.0000 </r>
       <r>  -23.2214    1.0000 </r>
       <r>  -22.5152    1.0000 </r>
       <r>  -22.4599    1.0000 </r>
       <r>  -22.3422    1.0000 </r>
       <r>  -22.2375    1.0000 </r>
       <r>  -22.1049    1.0000 </r>
       <r>  -21.5104    1.0000 </r>
       <r>  -21.1842    1.0000 </r>
       <r>  -20.8262    1.0000 </r>
       <r>  -19.5384    1.0000 </r>
       <r>  -19.2889    1.0000 </r>
       <r>  -18.7483    1.0000 </r>
       <r>  -18.4835    1.0000 </r>
       <r>  -18.1865    1.0000 </r>
       <r>  -17.9423    1.0000 </r>
       <r>  -17.8661    1.0000 </r>
       <r>  -17.7001    1.0000 </r>
       <r>  -17.6351    1.0000 </r>
       <r>  -17.3355    1.0000 </r>
       <r>  -16.9657    1.0000 </r>
       <r>  -16.6644    1.0000 </r>
       <r>  -15.8791    1.0000 </r>
       <r>  -15.6996    1.0000 </r>
       <r>  -15.3537    1.0000 </r>
       <r>  -15.2939    1.0000 </r>
       <r>  -14.7938    1.0000 </r>
       <r>  -14.7762    1.0000 </r>
       <r>  -14.7166    1.0000 </r>
       <r>  -14.3824    1.0000 </r>
       <r>  -14.1881    1.0000 </r>
       <r>  -14.1306    1.0000 </r>
       <r>  -14.1042    1.0000 </r>
       <r>  -13.9253    1.0000 </r>
       <r>  -13.8502    1.0000 </r>
       <r>  -13.8218    1.0000 </r>
       <r>  -13.5307    1.0000 </r>
       <r>  -13.4279    1.0000 </r>
       <r>  -13.4246    1.0000 </r>
       <r>  -13.2227    1.0000 </r>
       <r>  -13.1851    1.0000 </r>
       <r>  -12.9317    1.0000 </r>
       <r>  -12.8860    1.0000 </r>
       <r>  -12.7884    1.0000 </r>
       <r>  -12.7402    1.0000 </r>
       <r>  -12.5486    1.0000 </r>
       <r>  -12.4490    1.0000 </r>
       <r>  -12.3239    1.0000 </r>
       <r>  -12.2866    1.0000 </r>
       <r>  -12.0945    1.0000 </r>
       <r>  -12.0568    1.0000 </r>
       <r>  -11.5803    1.0000 </r>
       <r>  -11.5151    1.0000 </r>
       <r>  -11.3140    1.0000 </r>
       <r>  -11.1611    1.0000 </r>
       <r>  -11.1281    1.0000 </r>
       <r>  -10.8180    1.0000 </r>
       <r>  -10.7534    1.0000 </r>
       <r>  -10.6397    1.0000 </r>
       <r>  -10.5905    1.0000 </r>
       <r>  -10.5124    1.0000 </r>
       <r>  -10.1680    1.0000 </r>
       <r>  -10.0762    1.0000 </r>
       <r>   -9.8499    1.0000 </r>
       <r>   -9.7949    1.0000 </r>
       <r>   -9.7541    1.0000 </r>
       <r>   -9.6076    1.0000 </r>
       <r>   -9.5213    1.0000 </r>
       <r>   -8.9491    1.0000 </r>
       <r>   -8.8064    1.0000 </r>
       <r>   -8.4192    1.0000 </r>
       <r>   -7.5024    1.0000 </r>
       <r>   -7.3790    1.0000 </r>
       <r>   -7.2055    1.0000 </r>
       <r>   -5.4820    0.0000 </r>
       <r>   -5.3044    0.0000 </r>
       <r>   -5.0496    0.0000 </r>
       <r>   -4.3597    0.0000 </r>
       <r>   -4.1909    0.0000 </r>
       <r>   -4.1274    0.0000 </r>
       <r>   -4.0124    0.0000 </r>
       <r>   -3.9109    0.0000 </r>
       <r>   -3.5508    0.0000 </r>
       <r>   -3.3020    0.0000 </r>
       <r>   -3.2564    0.0000 </r>
       <r>   -2.9867    0.0000 </r>
       <r>   -2.7711    0.0000 </r>
       <r>   -1.9091    0.0000 </r>
       <r>   -1.7545    0.0000 </r>
       <r>   -1.5900    0.0000 </r>
       <r>   -1.3973    0.0000 </r>
       <r>   -1.2623    0.0000 </r>
       <r>   -1.1832    0.0000 </r>
       <r>   -1.1611    0.0000 </r>
       <r>   -0.9983    0.0000 </r>
       <r>   -0.8933    0.0000 </r>
       <r>   -0.7649    0.0000 </r>
       <r>   -0.6576    0.0000 </r>
       <r>   -0.5811    0.0000 </r>
       <r>   -0.5443    0.0000 </r>
       <r>   -0.5324    0.0000 </r>
       <r>   -0.3956    0.0000 </r>
       <r>   -0.3677    0.0000 </r>
       <r>   -0.2479    0.0000 </r>
       <r>   -0.2037    0.0000 </r>
       <r>   -0.1111    0.0000 </r>
       <r>    0.0168    0.0000 </r>
       <r>    0.0863    0.0000 </r>
       <r>    0.1520    0.0000 </r>
       <r>    0.2143    0.0000 </r>
       <r>    0.2688    0.0000 </r>
       <r>    0.3015    0.0000 </r>
       <r>    0.3672    0.0000 </r>
       <r>    0.4241    0.0000 </r>
       <r>    0.4675    0.0000 </r>
       <r>    0.5119    0.0000 </r>
       <r>    0.6090    0.0000 </r>
       <r>    0.6285    0.0000 </r>
       <r>    0.6819    0.0000 </r>
      </set>
     </set>
     <set comment="spin 2">
      <set comment="kpoint 1">
       <r>  -49.1788    1.0000 </r>
       <r>  -49.0278    1.0000 </r>
       <r>  -48.8314    1.0000 </r>
       <r>  -29.2870    1.0000 </r>
       <r>  -27.9069    1.0000 </r>
       <r>  -26.8778    1.0000 </r>
       <r>  -26.6758    1.0000 </r>
       <r>  -26.2395    1.0000 </r>
       <r>  -26.1749    1.0000 </r>
       <r>  -23.3839    1.0000 </r>
       <r>  -23.2214    1.0000 </r>
       <r>  -22.5152    1.0000 </r>
       <r>  -22.4599    1.0000 </r>
       <r>  -22.3422    1.0000 </r>
       <r>  -22.2375    1.0000 </r>
       <r>  -22.1049    1.0000 </r>
       <r>  -21.5104    1.0000 </r>
       <r>  -21.1842    1.0000 </r>
       <r>  -20.8262    1.0000 </r>
       <r>  -19.5384    1.0000 </r>
       <r>  -19.2889    1.0000 </r>
       <r>  -18.7483    1.0000 </r>
       <r>  -18.4835    1.0000 </r>
       <r>  -18.1865    1.0000 </r>
       <r>  -17.9423    1.0000 </r>
       <r>  -17.8661    1.0000 </r>
       <r>  -17.7001    1.0000 </r>
       <r>  -17.6351    1.0000 </r>
       <r>  -17.3355    1.0000 </r>
       <r>  -16.9657    1.0000 </r>
       <r>  -16.6644    1.0000 </r>
       <r>  -15.8791    1.0000 </r>
       <r>  -15.6996    1.0000 </r>
       <r>  -15.3537    1.0000 </r>
       <r>  -15.2939    1.0000 </r>
       <r>  -14.7938    1.0000 </r>
       <r>  -14.7762    1.0000 </r>
       <r>  -14.7166    1.0000 </r>
       <r>  -14.3824    1.0000 </r>
       <r>  -14.1881    1.0000 </r>
       <r>  -14.1306    1.0000 </r>
       <r>  -14.1042    1.0000 </r>
       <r>  -13.9253    1.0000 </r>
       <r>  -13.8502    1.0000 </r>
       <r>  -13.8218    1.0000 </r>
       <r>  -13.5307    1.0000 </r>
       <r>  -13.4279    1.0000 </r>
       <r>  -13.4246    1.0000 </r>
       <r>  -13.2227    1.0000 </r>
       <r>  -13.1851    1.0000 </r>
       <r>  -12.9317    1.0000 </r>
       <r>  -12.8860    1.0000 </r>
       <r>  -12.7884    1.0000 </r>
       <r>  -12.7402    1.0000 </r>
       <r>  -12.5486    1.0000 </r>
       <r>  -12.4490    1.0000 </r>
       <r>  -12.3239    1.0000 </r>
       <r>  -12.2866    1.0000 </r>
       <r>  -12.0945    1.0000 </r>
       <r>  -12.0568    1.0000 </r>
       <r>  -11.5803    1.0000 </r>
       <r>  -11.5151    1.0000 </r>
       <r>  -11.3140    1.0000 </r>
       <r>  -11.1611    1.0000 </r>
       <r>  -11.1281    1.0000 </r>
       <r>  -10.8180    1.0000 </r>
       <r>  -10.7534    1.0000 </r>
       <r>  -10.6397    1.0000 </r>
       <r>  -10.5905    1.0000 </r>
       <r>  -10.5124    1.0000 </r>
       <r>  -10.1680    1.0000 </r>
       <r>  -10.0762    1.0000 </r>
       <r>   -9.8499    1.0000 </r>
       <r>   -9.7949    1.0000 </r>
       <r>   -9.7541    1.0000 </r>
       <r>   -9.6076    1.0000 </r>
       <r>   -9.5213    1.0000 </r>
       <r>   -8.9491    1.0000 </r>
       <r>   -8.8064    1.0000 </r>
       <r>   -8.4192    1.0000 </r>
       <r>   -7.5024    1.0000 </r>
       <r>   -7.3790    1.0000 </r>
       <r>   -7.2055    1.0000 </r>
       <r>   -5.4820    0.0000 </r>
       <r>   -5.3044    0.0000 </r>
       <r>   -5.0496    0.0000 </r>
       <r>   -4.3597    0.0000 </r>
       <r>   -4.1909    0.0000 </r>
       <r>   -4.1274    0.0000 </r>
       <r>   -4.0124    0.0000 </r>
       <r>   -3.9109    0.0000 </r>
       <r>   -3.5508    0.0000 </r>
       <r>   -3.3020    0.0000 </r>
       <r>   -3.2564    0.0000 </r>
       <r>   -2.9867    0.0000 </r>
       <r>   -2.7711    0.0000 </r>
       <r>   -1.9091    0.0000 </r>
       <r>   -1.7545    0.0000 </r>
       <r>   -1.5900    0.0000 </r>
       <r>   -1.3973    0.0000 </r>
       <r>   -1.2623    0.0000 </r>
       <r>   -1.1832    0.0000 </r>
       <r>   -1.1611    0.0000 </r>
       <r>   -0.9983    0.0000 </r>
       <r>   -0.8933    0.0000 </r>
       <r>   -0.7649    0.0000 </r>
       <r>   -0.6576    0.0000 </r>
       <r>   -0.5811    0.0000 </r>
       <r>   -0.5443    0.0000 </r>
       <r>   -0.5324    0.0000 </r>
       <r>   -0.3956    0.0000 </r>
       <r>   -0.3677    0.0000 </r>
       <r>   -0.2479    0.0000 </r>
       <r>   -0.2037    0.0000 </r>
       <r>   -0.1112    0.0000 </r>
       <r>    0.0168    0.0000 </r>
       <r>    0.0863    0.0000 </r>
       <r>    0.1520    0.0000 </r>
       <r>    0.2143    0.0000 </r>
       <r>    0.2688    0.0000 </r>
       <r>    0.3015    0.0000 </r>
       <r>    0.3672    0.0000 </r>
       <r>    0.4241    0.0000 </r>
       <r>    0.4675    0.0000 </r>
       <r>    0.5119    0.0000 </r>
       <r>    0.6090    0.0000 </r>
       <r>    0.6285    0.0000 </r>
       <r>    0.6823    0.0000 </r>
      </set>
     </set>
    </set>
   </array>
  </eigenvalues>
  <separator name="orbital magnetization" >
   <v name="MAGDIPOLOUT">      0.00000000      0.00000000      0.00000000</v>
  </separator>
  <dos>
   <i name="efermi">     -7.15419896 </i>
   <total>
    <array>
     <dimension dim="1">gridpoints</dimension>
     <dimension dim="2">spin</dimension>
     <field>energy</field>
     <field>total</field>
     <field>integrated</field>
     <set>
      <set comment="spin 1">
       <r>   -51.6719     0.0000     0.0000 </r>
       <r>   -51.4891     0.0000     0.0000 </r>
       <r>   -51.3062     0.0000     0.0000 </r>
       <r>   -51.1234     0.0000     0.0000 </r>
       <r>   -50.9406     0.0000     0.0000 </r>
       <r>   -50.7578     0.0000     0.0000 </r>
       <r>   -50.5749     0.0000     0.0000 </r>
       <r>   -50.3921     0.0000     0.0000 </r>
       <r>   -50.2093     0.0000     0.0000 </r>
       <r>   -50.0265     0.0000     0.0000 </r>
       <r>   -49.8436     0.0000     0.0000 </r>
       <r>   -49.6608     0.0000     0.0000 </r>
       <r>   -49.4780     0.0000     0.0000 </r>
       <r>   -49.2952     0.0000     0.0000 </r>
       <r>   -49.1123    10.9395     2.0000 </r>
       <r>   -48.9295     0.0000     4.0000 </r>
       <r>   -48.7467     0.0000     6.0000 </r>
       <r>   -48.5639     0.0000     6.0000 </r>
       <r>   -48.3811     0.0000     6.0000 </r>
       <r>   -48.1982     0.0000     6.0000 </r>
       <r>   -48.0154     0.0000     6.0000 </r>
       <r>   -47.8326     0.0000     6.0000 </r>
       <r>   -47.6498     0.0000     6.0000 </r>
       <r>   -47.4669     0.0000     6.0000 </r>
       <r>   -47.2841     0.0000     6.0000 </r>
       <r>   -47.1013     0.0000     6.0000 </r>
       <r>   -46.9185     0.0000     6.0000 </r>
       <r>   -46.7356     0.0000     6.0000 </r>
       <r>   -46.5528     0.0000     6.0000 </r>
       <r>   -46.3700     0.0000     6.0000 </r>
       <r>   -46.1872     0.0000     6.0000 </r>
       <r>   -46.0043     0.0000     6.0000 </r>
       <r>   -45.8215     0.0000     6.0000 </r>
       <r>   -45.6387     0.0000     6.0000 </r>
       <r>   -45.4559     0.0000     6.0000 </r>
       <r>   -45.2730     0.0000     6.0000 </r>
       <r>   -45.0902     0.0000     6.0000 </r>
       <r>   -44.9074     0.0000     6.0000 </r>
       <r>   -44.7246     0.0000     6.0000 </r>
       <r>   -44.5417     0.0000     6.0000 </r>
       <r>   -44.3589     0.0000     6.0000 </r>
       <r>   -44.1761     0.0000     6.0000 </r>
       <r>   -43.9933     0.0000     6.0000 </r>
       <r>   -43.8104     0.0000     6.0000 </r>
       <r>   -43.6276     0.0000     6.0000 </r>
       <r>   -43.4448     0.0000     6.0000 </r>
       <r>   -43.2620     0.0000     6.0000 </r>
       <r>   -43.0791     0.0000     6.0000 </r>
       <r>   -42.8963     0.0000     6.0000 </r>
       <r>   -42.7135     0.0000     6.0000 </r>
       <r>   -42.5307     0.0000     6.0000 </r>
       <r>   -42.3479     0.0000     6.0000 </r>
       <r>   -42.1650     0.0000     6.0000 </r>
       <r>   -41.9822     0.0000     6.0000 </r>
       <r>   -41.7994     0.0000     6.0000 </r>
       <r>   -41.6166     0.0000     6.0000 </r>
       <r>   -41.4337     0.0000     6.0000 </r>
       <r>   -41.2509     0.0000     6.0000 </r>
       <r>   -41.0681     0.0000     6.0000 </r>
       <r>   -40.8853     0.0000     6.0000 </r>
       <r>   -40.7024     0.0000     6.0000 </r>
       <r>   -40.5196     0.0000     6.0000 </r>
       <r>   -40.3368     0.0000     6.0000 </r>
       <r>   -40.1540     0.0000     6.0000 </r>
       <r>   -39.9711     0.0000     6.0000 </r>
       <r>   -39.7883     0.0000     6.0000 </r>
       <r>   -39.6055     0.0000     6.0000 </r>
       <r>   -39.4227     0.0000     6.0000 </r>
       <r>   -39.2398     0.0000     6.0000 </r>
       <r>   -39.0570     0.0000     6.0000 </r>
       <r>   -38.8742     0.0000     6.0000 </r>
       <r>   -38.6914     0.0000     6.0000 </r>
       <r>   -38.5085     0.0000     6.0000 </r>
       <r>   -38.3257     0.0000     6.0000 </r>
       <r>   -38.1429     0.0000     6.0000 </r>
       <r>   -37.9601     0.0000     6.0000 </r>
       <r>   -37.7772     0.0000     6.0000 </r>
       <r>   -37.5944     0.0000     6.0000 </r>
       <r>   -37.4116     0.0000     6.0000 </r>
       <r>   -37.2288     0.0000     6.0000 </r>
       <r>   -37.0460     0.0000     6.0000 </r>
       <r>   -36.8631     0.0000     6.0000 </r>
       <r>   -36.6803     0.0000     6.0000 </r>
       <r>   -36.4975     0.0000     6.0000 </r>
       <r>   -36.3147     0.0000     6.0000 </r>
       <r>   -36.1318     0.0000     6.0000 </r>
       <r>   -35.9490     0.0000     6.0000 </r>
       <r>   -35.7662     0.0000     6.0000 </r>
       <r>   -35.5834     0.0000     6.0000 </r>
       <r>   -35.4005     0.0000     6.0000 </r>
       <r>   -35.2177     0.0000     6.0000 </r>
       <r>   -35.0349     0.0000     6.0000 </r>
       <r>   -34.8521     0.0000     6.0000 </r>
       <r>   -34.6692     0.0000     6.0000 </r>
       <r>   -34.4864     0.0000     6.0000 </r>
       <r>   -34.3036     0.0000     6.0000 </r>
       <r>   -34.1208     0.0000     6.0000 </r>
       <r>   -33.9379     0.0000     6.0000 </r>
       <r>   -33.7551     0.0000     6.0000 </r>
       <r>   -33.5723     0.0000     6.0000 </r>
       <r>   -33.3895     0.0000     6.0000 </r>
       <r>   -33.2066     0.0000     6.0000 </r>
       <r>   -33.0238     0.0000     6.0000 </r>
       <r>   -32.8410     0.0000     6.0000 </r>
       <r>   -32.6582     0.0000     6.0000 </r>
       <r>   -32.4753     0.0000     6.0000 </r>
       <r>   -32.2925     0.0000     6.0000 </r>
       <r>   -32.1097     0.0000     6.0000 </r>
       <r>   -31.9269     0.0000     6.0000 </r>
       <r>   -31.7441     0.0000     6.0000 </r>
       <r>   -31.5612     0.0000     6.0000 </r>
       <r>   -31.3784     0.0000     6.0000 </r>
       <r>   -31.1956     0.0000     6.0000 </r>
       <r>   -31.0128     0.0000     6.0000 </r>
       <r>   -30.8299     0.0000     6.0000 </r>
       <r>   -30.6471     0.0000     6.0000 </r>
       <r>   -30.4643     0.0000     6.0000 </r>
       <r>   -30.2815     0.0000     6.0000 </r>
       <r>   -30.0986     0.0000     6.0000 </r>
       <r>   -29.9158     0.0000     6.0000 </r>
       <r>   -29.7330     0.0000     6.0000 </r>
       <r>   -29.5502     0.0000     6.0000 </r>
       <r>   -29.3673     0.0000     6.0000 </r>
       <r>   -29.1845     0.0000     8.0000 </r>
       <r>   -29.0017     0.0000     8.0000 </r>
       <r>   -28.8189     0.0000     8.0000 </r>
       <r>   -28.6360     0.0000     8.0000 </r>
       <r>   -28.4532     0.0000     8.0000 </r>
       <r>   -28.2704     0.0000     8.0000 </r>
       <r>   -28.0876     0.0000     8.0000 </r>
       <r>   -27.9047     6.8064     9.2444 </r>
       <r>   -27.7219     0.0000    10.0000 </r>
       <r>   -27.5391     0.0000    10.0000 </r>
       <r>   -27.3563     0.0000    10.0000 </r>
       <r>   -27.1734     0.0000    10.0000 </r>
       <r>   -26.9906     0.0000    10.0000 </r>
       <r>   -26.8078    10.9395    12.0000 </r>
       <r>   -26.6250    10.9395    14.0000 </r>
       <r>   -26.4421     0.0000    14.0000 </r>
       <r>   -26.2593     0.0275    14.0050 </r>
       <r>   -26.0765     0.0000    18.0000 </r>
       <r>   -25.8937     0.0000    18.0000 </r>
       <r>   -25.7109     0.0000    18.0000 </r>
       <r>   -25.5280     0.0000    18.0000 </r>
       <r>   -25.3452     0.0000    18.0000 </r>
       <r>   -25.1624     0.0000    18.0000 </r>
       <r>   -24.9796     0.0000    18.0000 </r>
       <r>   -24.7967     0.0000    18.0000 </r>
       <r>   -24.6139     0.0000    18.0000 </r>
       <r>   -24.4311     0.0000    18.0000 </r>
       <r>   -24.2483     0.0000    18.0000 </r>
       <r>   -24.0654     0.0000    18.0000 </r>
       <r>   -23.8826     0.0000    18.0000 </r>
       <r>   -23.6998     0.0000    18.0000 </r>
       <r>   -23.5170     0.0000    18.0000 </r>
       <r>   -23.3341    10.9395    20.0000 </r>
       <r>   -23.1513    10.9395    22.0000 </r>
       <r>   -22.9685     0.0000    22.0000 </r>
       <r>   -22.7857     0.0000    22.0000 </r>
       <r>   -22.6028     0.0000    22.0000 </r>
       <r>   -22.4200    10.9395    26.0000 </r>
       <r>   -22.2372     5.6877    29.0399 </r>
       <r>   -22.0544    10.9395    32.0000 </r>
       <r>   -21.8715     0.0000    32.0000 </r>
       <r>   -21.6887     0.0000    32.0000 </r>
       <r>   -21.5059     8.0790    33.4770 </r>
       <r>   -21.3231     0.0000    34.0000 </r>
       <r>   -21.1402    10.9395    36.0000 </r>
       <r>   -20.9574     0.0000    36.0000 </r>
       <r>   -20.7746    10.9395    38.0000 </r>
       <r>   -20.5918     0.0000    38.0000 </r>
       <r>   -20.4090     0.0000    38.0000 </r>
       <r>   -20.2261     0.0000    38.0000 </r>
       <r>   -20.0433     0.0000    38.0000 </r>
       <r>   -19.8605     0.0000    38.0000 </r>
       <r>   -19.6777     0.0000    38.0000 </r>
       <r>   -19.4948    10.9395    40.0000 </r>
       <r>   -19.3120     0.0059    40.0011 </r>
       <r>   -19.1292     0.0000    42.0000 </r>
       <r>   -18.9464     0.0000    42.0000 </r>
       <r>   -18.7635     0.1684    42.0308 </r>
       <r>   -18.5807     0.0000    44.0000 </r>
       <r>   -18.3979     0.0000    46.0000 </r>
       <r>   -18.2151     0.0003    46.0001 </r>
       <r>   -18.0322     0.0000    48.0000 </r>
       <r>   -17.8494    10.8387    51.9816 </r>
       <r>   -17.6666    10.9395    54.0000 </r>
       <r>   -17.4838     0.0000    56.0000 </r>
       <r>   -17.3009    10.9395    58.0000 </r>
       <r>   -17.1181     0.0000    58.0000 </r>
       <r>   -16.9353    10.9394    60.0000 </r>
       <r>   -16.7525     0.0000    60.0000 </r>
       <r>   -16.5696     0.0000    62.0000 </r>
       <r>   -16.3868     0.0000    62.0000 </r>
       <r>   -16.2040     0.0000    62.0000 </r>
       <r>   -16.0212     0.0000    62.0000 </r>
       <r>   -15.8383    10.9395    64.0000 </r>
       <r>   -15.6555    10.9395    66.0000 </r>
       <r>   -15.4727     0.0000    66.0000 </r>
       <r>   -15.2899    18.7679    69.4312 </r>
       <r>   -15.1071     0.0000    70.0000 </r>
       <r>   -14.9242     0.0000    70.0000 </r>
       <r>   -14.7414    21.8814    74.0004 </r>
       <r>   -14.5586     0.0000    76.0000 </r>
       <r>   -14.3758     9.0433    77.6533 </r>
       <r>   -14.1929     2.6828    78.4905 </r>
       <r>   -14.0101     0.0000    84.0000 </r>
       <r>   -13.8273    13.3120    88.4338 </r>
       <r>   -13.6445     0.0000    90.0000 </r>
       <r>   -13.4616    10.9395    92.0000 </r>
       <r>   -13.2788     0.0000    96.0000 </r>
       <r>   -13.0960     0.0000   100.0000 </r>
       <r>   -12.9132    10.8924   101.9914 </r>
       <r>   -12.7303    20.9816   107.8359 </r>
       <r>   -12.5475     6.1660   109.1273 </r>
       <r>   -12.3647     0.0000   112.0000 </r>
       <r>   -12.1819     0.0000   116.0000 </r>
       <r>   -11.9990    10.9395   120.0000 </r>
       <r>   -11.8162     0.0000   120.0000 </r>
       <r>   -11.6334     0.0000   120.0000 </r>
       <r>   -11.4506    10.9395   124.0000 </r>
       <r>   -11.2677    10.9395   126.0000 </r>
       <r>   -11.0849    21.8789   130.0000 </r>
       <r>   -10.9021     0.0000   130.0000 </r>
       <r>   -10.7193    10.9395   134.0000 </r>
       <r>   -10.5364    10.9432   138.0007 </r>
       <r>   -10.3536     0.0000   140.0000 </r>
       <r>   -10.1708     3.7906   140.6930 </r>
       <r>    -9.9880     0.0000   144.0000 </r>
       <r>    -9.8051    11.7376   146.1459 </r>
       <r>    -9.6223     0.2025   150.0370 </r>
       <r>    -9.4395     0.0000   154.0000 </r>
       <r>    -9.2567     0.0000   154.0000 </r>
       <r>    -9.0739     0.0000   154.0000 </r>
       <r>    -8.8910    10.9395   156.0000 </r>
       <r>    -8.7082     0.0000   158.0000 </r>
       <r>    -8.5254     0.0000   158.0000 </r>
       <r>    -8.3426    10.9395   160.0000 </r>
       <r>    -8.1597     0.0000   160.0000 </r>
       <r>    -7.9769     0.0000   160.0000 </r>
       <r>    -7.7941     0.0000   160.0000 </r>
       <r>    -7.6113     0.0000   160.0000 </r>
       <r>    -7.4284    10.9395   162.0000 </r>
       <r>    -7.2456     0.0000   164.0000 </r>
       <r>    -7.0628     0.0000   166.0000 </r>
       <r>    -6.8800     0.0000   166.0000 </r>
       <r>    -6.6971     0.0000   166.0000 </r>
       <r>    -6.5143     0.0000   166.0000 </r>
       <r>    -6.3315     0.0000   166.0000 </r>
       <r>    -6.1487     0.0000   166.0000 </r>
       <r>    -5.9658     0.0000   166.0000 </r>
       <r>    -5.7830     0.0000   166.0000 </r>
       <r>    -5.6002     0.0000   166.0000 </r>
       <r>    -5.4174    10.9395   168.0000 </r>
       <r>    -5.2345    10.9395   170.0000 </r>
       <r>    -5.0517     4.1770   170.7637 </r>
       <r>    -4.8689     0.0000   172.0000 </r>
       <r>    -4.6861     0.0000   172.0000 </r>
       <r>    -4.5032     0.0000   172.0000 </r>
       <r>    -4.3204    10.9395   174.0000 </r>
       <r>    -4.1376    11.7510   176.1484 </r>
       <r>    -3.9548    10.9395   180.0000 </r>
       <r>    -3.7720     0.0000   182.0000 </r>
       <r>    -3.5891     0.0000   182.0000 </r>
       <r>    -3.4063     0.0000   184.0000 </r>
       <r>    -3.2235    21.8789   188.0000 </r>
       <r>    -3.0407     0.0000   188.0000 </r>
       <r>    -2.8578     0.0000   190.0000 </r>
       <r>    -2.6750     0.0000   192.0000 </r>
       <r>    -2.4922     0.0000   192.0000 </r>
       <r>    -2.3094     0.0000   192.0000 </r>
       <r>    -2.1265     0.0000   192.0000 </r>
       <r>    -1.9437     0.0000   192.0000 </r>
       <r>    -1.7609     1.9847   194.3629 </r>
       <r>    -1.5781    10.4420   197.9091 </r>
       <r>    -1.3952     6.7462   199.2334 </r>
       <r>    -1.2124    10.9397   202.0000 </r>
       <r>    -1.0296     0.0001   206.0000 </r>
       <r>    -0.8468    10.9395   210.0000 </r>
       <r>    -0.6639     2.0141   212.3682 </r>
       <r>    -0.4811    21.8789   220.0000 </r>
       <r>    -0.2983    10.9395   224.0000 </r>
       <r>    -0.1155     2.9608   228.5413 </r>
       <r>     0.0674    10.9795   232.0073 </r>
       <r>     0.2502    10.9855   238.0084 </r>
       <r>     0.4330    20.7434   245.7924 </r>
       <r>     0.6158     9.5172   251.7400 </r>
       <r>     0.7987     0.0000   256.0000 </r>
       <r>     0.9815     0.0000   256.0000 </r>
       <r>     1.1643     0.0000   256.0000 </r>
       <r>     1.3471     0.0000   256.0000 </r>
       <r>     1.5299     0.0000   256.0000 </r>
       <r>     1.7128     0.0000   256.0000 </r>
       <r>     1.8956     0.0000   256.0000 </r>
       <r>     2.0784     0.0000   256.0000 </r>
       <r>     2.2612     0.0000   256.0000 </r>
       <r>     2.4441     0.0000   256.0000 </r>
       <r>     2.6269     0.0000   256.0000 </r>
       <r>     2.8097     0.0000   256.0000 </r>
       <r>     2.9925     0.0000   256.0000 </r>
       <r>     3.1754     0.0000   256.0000 </r>
      </set>
      <set comment="spin 2">
       <r>   -51.6719     0.0000     0.0000 </r>
       <r>   -51.4891     0.0000     0.0000 </r>
       <r>   -51.3062     0.0000     0.0000 </r>
       <r>   -51.1234     0.0000     0.0000 </r>
       <r>   -50.9406     0.0000     0.0000 </r>
       <r>   -50.7578     0.0000     0.0000 </r>
       <r>   -50.5749     0.0000     0.0000 </r>
       <r>   -50.3921     0.0000     0.0000 </r>
       <r>   -50.2093     0.0000     0.0000 </r>
       <r>   -50.0265     0.0000     0.0000 </r>
       <r>   -49.8436     0.0000     0.0000 </r>
       <r>   -49.6608     0.0000     0.0000 </r>
       <r>   -49.4780     0.0000     0.0000 </r>
       <r>   -49.2952     0.0000     0.0000 </r>
       <r>   -49.1123    10.9395     2.0000 </r>
       <r>   -48.9295     0.0000     4.0000 </r>
       <r>   -48.7467     0.0000     6.0000 </r>
       <r>   -48.5639     0.0000     6.0000 </r>
       <r>   -48.3811     0.0000     6.0000 </r>
       <r>   -48.1982     0.0000     6.0000 </r>
       <r>   -48.0154     0.0000     6.0000 </r>
       <r>   -47.8326     0.0000     6.0000 </r>
       <r>   -47.6498     0.0000     6.0000 </r>
       <r>   -47.4669     0.0000     6.0000 </r>
       <r>   -47.2841     0.0000     6.0000 </r>
       <r>   -47.1013     0.0000     6.0000 </r>
       <r>   -46.9185     0.0000     6.0000 </r>
       <r>   -46.7356     0.0000     6.0000 </r>
       <r>   -46.5528     0.0000     6.0000 </r>
       <r>   -46.3700     0.0000     6.0000 </r>
       <r>   -46.1872     0.0000     6.0000 </r>
       <r>   -46.0043     0.0000     6.0000 </r>
       <r>   -45.8215     0.0000     6.0000 </r>
       <r>   -45.6387     0.0000     6.0000 </r>
       <r>   -45.4559     0.0000     6.0000 </r>
       <r>   -45.2730     0.0000     6.0000 </r>
       <r>   -45.0902     0.0000     6.0000 </r>
       <r>   -44.9074     0.0000     6.0000 </r>
       <r>   -44.7246     0.0000     6.0000 </r>
       <r>   -44.5417     0.0000     6.0000 </r>
       <r>   -44.3589     0.0000     6.0000 </r>
       <r>   -44.1761     0.0000     6.0000 </r>
       <r>   -43.9933     0.0000     6.0000 </r>
       <r>   -43.8104     0.0000     6.0000 </r>
       <r>   -43.6276     0.0000     6.0000 </r>
       <r>   -43.4448     0.0000     6.0000 </r>
       <r>   -43.2620     0.0000     6.0000 </r>
       <r>   -43.0791     0.0000     6.0000 </r>
       <r>   -42.8963     0.0000     6.0000 </r>
       <r>   -42.7135     0.0000     6.0000 </r>
       <r>   -42.5307     0.0000     6.0000 </r>
       <r>   -42.3479     0.0000     6.0000 </r>
       <r>   -42.1650     0.0000     6.0000 </r>
       <r>   -41.9822     0.0000     6.0000 </r>
       <r>   -41.7994     0.0000     6.0000 </r>
       <r>   -41.6166     0.0000     6.0000 </r>
       <r>   -41.4337     0.0000     6.0000 </r>
       <r>   -41.2509     0.0000     6.0000 </r>
       <r>   -41.0681     0.0000     6.0000 </r>
       <r>   -40.8853     0.0000     6.0000 </r>
       <r>   -40.7024     0.0000     6.0000 </r>
       <r>   -40.5196     0.0000     6.0000 </r>
       <r>   -40.3368     0.0000     6.0000 </r>
       <r>   -40.1540     0.0000     6.0000 </r>
       <r>   -39.9711     0.0000     6.0000 </r>
       <r>   -39.7883     0.0000     6.0000 </r>
       <r>   -39.6055     0.0000     6.0000 </r>
       <r>   -39.4227     0.0000     6.0000 </r>
       <r>   -39.2398     0.0000     6.0000 </r>
       <r>   -39.0570     0.0000     6.0000 </r>
       <r>   -38.8742     0.0000     6.0000 </r>
       <r>   -38.6914     0.0000     6.0000 </r>
       <r>   -38.5085     0.0000     6.0000 </r>
       <r>   -38.3257     0.0000     6.0000 </r>
       <r>   -38.1429     0.0000     6.0000 </r>
       <r>   -37.9601     0.0000     6.0000 </r>
       <r>   -37.7772     0.0000     6.0000 </r>
       <r>   -37.5944     0.0000     6.0000 </r>
       <r>   -37.4116     0.0000     6.0000 </r>
       <r>   -37.2288     0.0000     6.0000 </r>
       <r>   -37.0460     0.0000     6.0000 </r>
       <r>   -36.8631     0.0000     6.0000 </r>
       <r>   -36.6803     0.0000     6.0000 </r>
       <r>   -36.4975     0.0000     6.0000 </r>
       <r>   -36.3147     0.0000     6.0000 </r>
       <r>   -36.1318     0.0000     6.0000 </r>
       <r>   -35.9490     0.0000     6.0000 </r>
       <r>   -35.7662     0.0000     6.0000 </r>
       <r>   -35.5834     0.0000     6.0000 </r>
       <r>   -35.4005     0.0000     6.0000 </r>
       <r>   -35.2177     0.0000     6.0000 </r>
       <r>   -35.0349     0.0000     6.0000 </r>
       <r>   -34.8521     0.0000     6.0000 </r>
       <r>   -34.6692     0.0000     6.0000 </r>
       <r>   -34.4864     0.0000     6.0000 </r>
       <r>   -34.3036     0.0000     6.0000 </r>
       <r>   -34.1208     0.0000     6.0000 </r>
       <r>   -33.9379     0.0000     6.0000 </r>
       <r>   -33.7551     0.0000     6.0000 </r>
       <r>   -33.5723     0.0000     6.0000 </r>
       <r>   -33.3895     0.0000     6.0000 </r>
       <r>   -33.2066     0.0000     6.0000 </r>
       <r>   -33.0238     0.0000     6.0000 </r>
       <r>   -32.8410     0.0000     6.0000 </r>
       <r>   -32.6582     0.0000     6.0000 </r>
       <r>   -32.4753     0.0000     6.0000 </r>
       <r>   -32.2925     0.0000     6.0000 </r>
       <r>   -32.1097     0.0000     6.0000 </r>
       <r>   -31.9269     0.0000     6.0000 </r>
       <r>   -31.7441     0.0000     6.0000 </r>
       <r>   -31.5612     0.0000     6.0000 </r>
       <r>   -31.3784     0.0000     6.0000 </r>
       <r>   -31.1956     0.0000     6.0000 </r>
       <r>   -31.0128     0.0000     6.0000 </r>
       <r>   -30.8299     0.0000     6.0000 </r>
       <r>   -30.6471     0.0000     6.0000 </r>
       <r>   -30.4643     0.0000     6.0000 </r>
       <r>   -30.2815     0.0000     6.0000 </r>
       <r>   -30.0986     0.0000     6.0000 </r>
       <r>   -29.9158     0.0000     6.0000 </r>
       <r>   -29.7330     0.0000     6.0000 </r>
       <r>   -29.5502     0.0000     6.0000 </r>
       <r>   -29.3673     0.0000     6.0000 </r>
       <r>   -29.1845     0.0000     8.0000 </r>
       <r>   -29.0017     0.0000     8.0000 </r>
       <r>   -28.8189     0.0000     8.0000 </r>
       <r>   -28.6360     0.0000     8.0000 </r>
       <r>   -28.4532     0.0000     8.0000 </r>
       <r>   -28.2704     0.0000     8.0000 </r>
       <r>   -28.0876     0.0000     8.0000 </r>
       <r>   -27.9047     6.8064     9.2444 </r>
       <r>   -27.7219     0.0000    10.0000 </r>
       <r>   -27.5391     0.0000    10.0000 </r>
       <r>   -27.3563     0.0000    10.0000 </r>
       <r>   -27.1734     0.0000    10.0000 </r>
       <r>   -26.9906     0.0000    10.0000 </r>
       <r>   -26.8078    10.9395    12.0000 </r>
       <r>   -26.6250    10.9395    14.0000 </r>
       <r>   -26.4421     0.0000    14.0000 </r>
       <r>   -26.2593     0.0275    14.0050 </r>
       <r>   -26.0765     0.0000    18.0000 </r>
       <r>   -25.8937     0.0000    18.0000 </r>
       <r>   -25.7109     0.0000    18.0000 </r>
       <r>   -25.5280     0.0000    18.0000 </r>
       <r>   -25.3452     0.0000    18.0000 </r>
       <r>   -25.1624     0.0000    18.0000 </r>
       <r>   -24.9796     0.0000    18.0000 </r>
       <r>   -24.7967     0.0000    18.0000 </r>
       <r>   -24.6139     0.0000    18.0000 </r>
       <r>   -24.4311     0.0000    18.0000 </r>
       <r>   -24.2483     0.0000    18.0000 </r>
       <r>   -24.0654     0.0000    18.0000 </r>
       <r>   -23.8826     0.0000    18.0000 </r>
       <r>   -23.6998     0.0000    18.0000 </r>
       <r>   -23.5170     0.0000    18.0000 </r>
       <r>   -23.3341    10.9395    20.0000 </r>
       <r>   -23.1513    10.9395    22.0000 </r>
       <r>   -22.9685     0.0000    22.0000 </r>
       <r>   -22.7857     0.0000    22.0000 </r>
       <r>   -22.6028     0.0000    22.0000 </r>
       <r>   -22.4200    10.9395    26.0000 </r>
       <r>   -22.2372     5.6877    29.0399 </r>
       <r>   -22.0544    10.9395    32.0000 </r>
       <r>   -21.8715     0.0000    32.0000 </r>
       <r>   -21.6887     0.0000    32.0000 </r>
       <r>   -21.5059     8.0790    33.4770 </r>
       <r>   -21.3231     0.0000    34.0000 </r>
       <r>   -21.1402    10.9395    36.0000 </r>
       <r>   -20.9574     0.0000    36.0000 </r>
       <r>   -20.7746    10.9395    38.0000 </r>
       <r>   -20.5918     0.0000    38.0000 </r>
       <r>   -20.4090     0.0000    38.0000 </r>
       <r>   -20.2261     0.0000    38.0000 </r>
       <r>   -20.0433     0.0000    38.0000 </r>
       <r>   -19.8605     0.0000    38.0000 </r>
       <r>   -19.6777     0.0000    38.0000 </r>
       <r>   -19.4948    10.9395    40.0000 </r>
       <r>   -19.3120     0.0059    40.0011 </r>
       <r>   -19.1292     0.0000    42.0000 </r>
       <r>   -18.9464     0.0000    42.0000 </r>
       <r>   -18.7635     0.1684    42.0308 </r>
       <r>   -18.5807     0.0000    44.0000 </r>
       <r>   -18.3979     0.0000    46.0000 </r>
       <r>   -18.2151     0.0003    46.0001 </r>
       <r>   -18.0322     0.0000    48.0000 </r>
       <r>   -17.8494    10.8387    51.9816 </r>
       <r>   -17.6666    10.9395    54.0000 </r>
       <r>   -17.4838     0.0000    56.0000 </r>
       <r>   -17.3009    10.9395    58.0000 </r>
       <r>   -17.1181     0.0000    58.0000 </r>
       <r>   -16.9353    10.9394    60.0000 </r>
       <r>   -16.7525     0.0000    60.0000 </r>
       <r>   -16.5696     0.0000    62.0000 </r>
       <r>   -16.3868     0.0000    62.0000 </r>
       <r>   -16.2040     0.0000    62.0000 </r>
       <r>   -16.0212     0.0000    62.0000 </r>
       <r>   -15.8383    10.9395    64.0000 </r>
       <r>   -15.6555    10.9395    66.0000 </r>
       <r>   -15.4727     0.0000    66.0000 </r>
       <r>   -15.2899    18.7679    69.4312 </r>
       <r>   -15.1071     0.0000    70.0000 </r>
       <r>   -14.9242     0.0000    70.0000 </r>
       <r>   -14.7414    21.8814    74.0004 </r>
       <r>   -14.5586     0.0000    76.0000 </r>
       <r>   -14.3758     9.0433    77.6533 </r>
       <r>   -14.1929     2.6828    78.4905 </r>
       <r>   -14.0101     0.0000    84.0000 </r>
       <r>   -13.8273    13.3120    88.4338 </r>
       <r>   -13.6445     0.0000    90.0000 </r>
       <r>   -13.4616    10.9395    92.0000 </r>
       <r>   -13.2788     0.0000    96.0000 </r>
       <r>   -13.0960     0.0000   100.0000 </r>
       <r>   -12.9132    10.8924   101.9914 </r>
       <r>   -12.7303    20.9816   107.8359 </r>
       <r>   -12.5475     6.1660   109.1273 </r>
       <r>   -12.3647     0.0000   112.0000 </r>
       <r>   -12.1819     0.0000   116.0000 </r>
       <r>   -11.9990    10.9395   120.0000 </r>
       <r>   -11.8162     0.0000   120.0000 </r>
       <r>   -11.6334     0.0000   120.0000 </r>
       <r>   -11.4506    10.9395   124.0000 </r>
       <r>   -11.2677    10.9395   126.0000 </r>
       <r>   -11.0849    21.8789   130.0000 </r>
       <r>   -10.9021     0.0000   130.0000 </r>
       <r>   -10.7193    10.9395   134.0000 </r>
       <r>   -10.5364    10.9432   138.0007 </r>
       <r>   -10.3536     0.0000   140.0000 </r>
       <r>   -10.1708     3.7906   140.6930 </r>
       <r>    -9.9880     0.0000   144.0000 </r>
       <r>    -9.8051    11.7376   146.1459 </r>
       <r>    -9.6223     0.2025   150.0370 </r>
       <r>    -9.4395     0.0000   154.0000 </r>
       <r>    -9.2567     0.0000   154.0000 </r>
       <r>    -9.0739     0.0000   154.0000 </r>
       <r>    -8.8910    10.9395   156.0000 </r>
       <r>    -8.7082     0.0000   158.0000 </r>
       <r>    -8.5254     0.0000   158.0000 </r>
       <r>    -8.3426    10.9395   160.0000 </r>
       <r>    -8.1597     0.0000   160.0000 </r>
       <r>    -7.9769     0.0000   160.0000 </r>
       <r>    -7.7941     0.0000   160.0000 </r>
       <r>    -7.6113     0.0000   160.0000 </r>
       <r>    -7.4284    10.9395   162.0000 </r>
       <r>    -7.2456     0.0000   164.0000 </r>
       <r>    -7.0628     0.0000   166.0000 </r>
       <r>    -6.8800     0.0000   166.0000 </r>
       <r>    -6.6971     0.0000   166.0000 </r>
       <r>    -6.5143     0.0000   166.0000 </r>
       <r>    -6.3315     0.0000   166.0000 </r>
       <r>    -6.1487     0.0000   166.0000 </r>
       <r>    -5.9658     0.0000   166.0000 </r>
       <r>    -5.7830     0.0000   166.0000 </r>
       <r>    -5.6002     0.0000   166.0000 </r>
       <r>    -5.4174    10.9395   168.0000 </r>
       <r>    -5.2345    10.9395   170.0000 </r>
       <r>    -5.0517     4.1770   170.7637 </r>
       <r>    -4.8689     0.0000   172.0000 </r>
       <r>    -4.6861     0.0000   172.0000 </r>
       <r>    -4.5032     0.0000   172.0000 </r>
       <r>    -4.3204    10.9395   174.0000 </r>
       <r>    -4.1376    11.7510   176.1484 </r>
       <r>    -3.9548    10.9395   180.0000 </r>
       <r>    -3.7720     0.0000   182.0000 </r>
       <r>    -3.5891     0.0000   182.0000 </r>
       <r>    -3.4063     0.0000   184.0000 </r>
       <r>    -3.2235    21.8789   188.0000 </r>
       <r>    -3.0407     0.0000   188.0000 </r>
       <r>    -2.8578     0.0000   190.0000 </r>
       <r>    -2.6750     0.0000   192.0000 </r>
       <r>    -2.4922     0.0000   192.0000 </r>
       <r>    -2.3094     0.0000   192.0000 </r>
       <r>    -2.1265     0.0000   192.0000 </r>
       <r>    -1.9437     0.0000   192.0000 </r>
       <r>    -1.7609     1.9847   194.3629 </r>
       <r>    -1.5781    10.4421   197.9091 </r>
       <r>    -1.3952     6.7461   199.2333 </r>
       <r>    -1.2124    10.9397   202.0000 </r>
       <r>    -1.0296     0.0001   206.0000 </r>
       <r>    -0.8468    10.9395   210.0000 </r>
       <r>    -0.6639     2.0140   212.3682 </r>
       <r>    -0.4811    21.8789   220.0000 </r>
       <r>    -0.2983    10.9395   224.0000 </r>
       <r>    -0.1155     2.9616   228.5414 </r>
       <r>     0.0674    10.9795   232.0073 </r>
       <r>     0.2502    10.9855   238.0084 </r>
       <r>     0.4330    20.7439   245.7925 </r>
       <r>     0.6158     9.5174   251.7400 </r>
       <r>     0.7987     0.0000   256.0000 </r>
       <r>     0.9815     0.0000   256.0000 </r>
       <r>     1.1643     0.0000   256.0000 </r>
       <r>     1.3471     0.0000   256.0000 </r>
       <r>     1.5299     0.0000   256.0000 </r>
       <r>     1.7128     0.0000   256.0000 </r>
       <r>     1.8956     0.0000   256.0000 </r>
       <r>     2.0784     0.0000   256.0000 </r>
       <r>     2.2612     0.0000   256.0000 </r>
       <r>     2.4441     0.0000   256.0000 </r>
       <r>     2.6269     0.0000   256.0000 </r>
       <r>     2.8097     0.0000   256.0000 </r>
       <r>     2.9925     0.0000   256.0000 </r>
       <r>     3.1754     0.0000   256.0000 </r>
      </set>
     </set>
    </array>
   </total>
  </dos>
 </calculation>
 <structure name="finalpos" >
  <crystal>
   <varray name="basis" >
    <v>      20.00000000       0.00000000       0.00000000 </v>
    <v>       0.00000000      20.00000000       0.00000000 </v>
    <v>       0.00000000       0.00000000      20.00000000 </v>
   </varray>
   <i name="volume">   8000.00000000 </i>
   <varray name="rec_basis" >
    <v>       0.05000000       0.00000000       0.00000000 </v>
    <v>       0.00000000       0.05000000       0.00000000 </v>
    <v>       0.00000000       0.00000000       0.05000000 </v>
   </varray>
  </crystal>
  <varray name="positions" >
   <v>       0.37289802       0.40579857       0.48223443 </v>
   <v>       0.43793752       0.56561110       0.32757008 </v>
   <v>       0.45581208       0.52423376       0.38051465 </v>
   <v>       0.47372925       0.61530131       0.44986522 </v>
   <v>       0.45595175       0.65963312       0.39935201 </v>
   <v>       0.43785737       0.63472201       0.33675972 </v>
   <v>       0.52307882       0.32955005       0.67474498 </v>
   <v>       0.49710163       0.37190466       0.62618823 </v>
   <v>       0.60227374       0.41933300       0.60593616 </v>
   <v>       0.63096398       0.37761922       0.65422416 </v>
   <v>       0.73964927       0.52855915       0.53463181 </v>
   <v>       0.70082162       0.56612858       0.49044049 </v>
   <v>       0.63257913       0.55363620       0.48652424 </v>
   <v>       0.63952130       0.46927713       0.56732841 </v>
   <v>       0.70843899       0.47974495       0.57314689 </v>
   <v>       0.59134754       0.33224398       0.68903016 </v>
   <v>       0.36211554       0.48866484       0.56417415 </v>
   <v>       0.40790931       0.62211625       0.69058213 </v>
   <v>       0.47619960       0.62606623       0.67660612 </v>
   <v>       0.50295190       0.58590820       0.62668073 </v>
   <v>       0.39825425       0.53800137       0.60426081 </v>
   <v>       0.36904589       0.57756069       0.65398228 </v>
   <v>       0.29334713       0.47671938       0.56830116 </v>
   <v>       0.30486503       0.39173492       0.48443166 </v>
   <v>       0.26422003       0.42785518       0.52821594 </v>
   <v>       0.48989745       0.29510618       0.70074864 </v>
   <v>       0.61334240       0.29968355       0.72673159 </v>
   <v>       0.68424189       0.38076917       0.66478776 </v>
   <v>       0.54225374       0.36233861       0.46129841 </v>
   <v>       0.31579090       0.57306911       0.66420366 </v>
   <v>       0.44416348       0.37118871       0.61364770 </v>
   <v>       0.42392665       0.66833230       0.29622671 </v>
   <v>       0.45642762       0.71313270       0.40950260 </v>
   <v>       0.48809132       0.63358802       0.49907234 </v>
   <v>       0.56912778       0.41808713       0.41480476 </v>
   <v>       0.73767440       0.44963919       0.60776512 </v>
   <v>       0.72277620       0.60481012       0.45904817 </v>
   <v>       0.45570253       0.47012894       0.37468790 </v>
   <v>       0.40614333       0.37888556       0.44852541 </v>
   <v>       0.28443799       0.35306162       0.45202062 </v>
   <v>       0.79326502       0.53703787       0.53892527 </v>
   <v>       0.55589708       0.58769132       0.61440612 </v>
   <v>       0.42412006       0.54328620       0.27986105 </v>
   <v>       0.50894741       0.65984570       0.70400156 </v>
   <v>       0.26265982       0.50568523       0.60265428 </v>
   <v>       0.21072272       0.41813760       0.53105039 </v>
   <v>       0.60090654       0.58197914       0.45254259 </v>
   <v>       0.38544357       0.65296704       0.72941133 </v>
   <v>       0.47424490       0.54794204       0.44140236 </v>
   <v>       0.40180479       0.45306079       0.52108436 </v>
   <v>       0.53520702       0.41608490       0.59173240 </v>
   <v>       0.46544808       0.54254992       0.59041194 </v>
   <v>       0.60138410       0.50650621       0.52397638 </v>
   <v>       0.53073984       0.40562607       0.44215451 </v>
   <v>       0.50088568       0.48087016       0.51934246 </v>
  </varray>
  <varray name="selective"  type="logical" >
   <v type="logical" >  T  T  T </v>
   <v type="logical" >  T  T  T </v>
   <v type="logical" >  T  T  T </v>
   <v type="logical" >  T  T  T </v>
   <v type="logical" >  T  T  T </v>
   <v type="logical" >  T  T  T </v>
   <v type="logical" >  T  T  T </v>
   <v type="logical" >  T  T  T </v>
   <v type="logical" >  T  T  T </v>
   <v type="logical" >  T  T  T </v>
   <v type="logical" >  T  T  T </v>
   <v type="logical" >  T  T  T </v>
   <v type="logical" >  T  T  T </v>
   <v type="logical" >  T  T  T </v>
   <v type="logical" >  T  T  T </v>
   <v type="logical" >  T  T  T </v>
   <v type="logical" >  T  T  T </v>
   <v type="logical" >  T  T  T </v>
   <v type="logical" >  T  T  T </v>
   <v type="logical" >  T  T  T </v>
   <v type="logical" >  T  T  T </v>
   <v type="logical" >  T  T  T </v>
   <v type="logical" >  T  T  T </v>
   <v type="logical" >  T  T  T </v>
   <v type="logical" >  T  T  T </v>
   <v type="logical" >  T  T  T </v>
   <v type="logical" >  T  T  T </v>
   <v type="logical" >  T  T  T </v>
   <v type="logical" >  T  T  T </v>
   <v type="logical" >  T  T  T </v>
   <v type="logical" >  T  T  T </v>
   <v type="logical" >  T  T  T </v>
   <v type="logical" >  T  T  T </v>
   <v type="logical" >  T  T  T </v>
   <v type="logical" >  T  T  T </v>
   <v type="logical" >  T  T  T </v>
   <v type="logical" >  T  T  T </v>
   <v type="logical" >  T  T  T </v>
   <v type="logical" >  T  T  T </v>
   <v type="logical" >  T  T  T </v>
   <v type="logical" >  T  T  T </v>
   <v type="logical" >  T  T  T </v>
   <v type="logical" >  T  T  T </v>
   <v type="logical" >  T  T  T </v>
   <v type="logical" >  T  T  T </v>
   <v type="logical" >  T  T  T </v>
   <v type="logical" >  T  T  T </v>
   <v type="logical" >  T  T  T </v>
   <v type="logical" >  T  T  T </v>
   <v type="logical" >  T  T  T </v>
   <v type="logical" >  T  T  T </v>
   <v type="logical" >  T  T  T </v>
   <v type="logical" >  T  T  T </v>
   <v type="logical" >  T  T  T </v>
   <v type="logical" >  T  T  T </v>
  </varray>
  <nose>
   <v>      -3.00000000       0.00000000       0.00010000       0.00010000 </v>
  </nose>
 </structure>
</modeling>
