  55  55   0   0
  0.1454545E+03  0.2000000E-08  0.2000000E-08  0.2000000E-08  0.5000000E-15
  1.000000000000000E-004
  CAR 
 c2_oh2_ruthenium_mol                    
      3.20204746    -51.69532312  301     -7.18270514      1.00000000
    -51.695  0.0000E+00  0.0000E+00  0.0000E+00  0.0000E+00
    -51.512  0.0000E+00  0.0000E+00  0.0000E+00  0.0000E+00
    -51.329  0.0000E+00  0.0000E+00  0.0000E+00  0.0000E+00
    -51.146  0.0000E+00  0.0000E+00  0.0000E+00  0.0000E+00
    -50.963  0.0000E+00  0.0000E+00  0.0000E+00  0.0000E+00
    -50.780  0.0000E+00  0.0000E+00  0.0000E+00  0.0000E+00
    -50.597  0.0000E+00  0.0000E+00  0.0000E+00  0.0000E+00
    -50.414  0.0000E+00  0.0000E+00  0.0000E+00  0.0000E+00
    -50.231  0.0000E+00  0.0000E+00  0.0000E+00  0.0000E+00
    -50.048  0.0000E+00  0.0000E+00  0.0000E+00  0.0000E+00
    -49.865  0.0000E+00  0.0000E+00  0.0000E+00  0.0000E+00
    -49.682  0.0000E+00  0.0000E+00  0.0000E+00  0.0000E+00
    -49.499  0.0000E+00  0.0000E+00  0.0000E+00  0.0000E+00
    -49.316  0.0000E+00  0.0000E+00  0.0000E+00  0.0000E+00
    -49.133  0.1113E+02  0.1113E+02  0.2037E+01  0.2037E+01
    -48.950  0.0000E+00  0.0000E+00  0.4000E+01  0.4000E+01
    -48.767  0.1093E+02  0.1093E+02  0.6000E+01  0.6000E+01
    -48.584  0.0000E+00  0.0000E+00  0.6000E+01  0.6000E+01
    -48.401  0.0000E+00  0.0000E+00  0.6000E+01  0.6000E+01
    -48.218  0.0000E+00  0.0000E+00  0.6000E+01  0.6000E+01
    -48.035  0.0000E+00  0.0000E+00  0.6000E+01  0.6000E+01
    -47.853  0.0000E+00  0.0000E+00  0.6000E+01  0.6000E+01
    -47.670  0.0000E+00  0.0000E+00  0.6000E+01  0.6000E+01
    -47.487  0.0000E+00  0.0000E+00  0.6000E+01  0.6000E+01
    -47.304  0.0000E+00  0.0000E+00  0.6000E+01  0.6000E+01
    -47.121  0.0000E+00  0.0000E+00  0.6000E+01  0.6000E+01
    -46.938  0.0000E+00  0.0000E+00  0.6000E+01  0.6000E+01
    -46.755  0.0000E+00  0.0000E+00  0.6000E+01  0.6000E+01
    -46.572  0.0000E+00  0.0000E+00  0.6000E+01  0.6000E+01
    -46.389  0.0000E+00  0.0000E+00  0.6000E+01  0.6000E+01
    -46.206  0.0000E+00  0.0000E+00  0.6000E+01  0.6000E+01
    -46.023  0.0000E+00  0.0000E+00  0.6000E+01  0.6000E+01
    -45.840  0.0000E+00  0.0000E+00  0.6000E+01  0.6000E+01
    -45.657  0.0000E+00  0.0000E+00  0.6000E+01  0.6000E+01
    -45.474  0.0000E+00  0.0000E+00  0.6000E+01  0.6000E+01
    -45.291  0.0000E+00  0.0000E+00  0.6000E+01  0.6000E+01
    -45.108  0.0000E+00  0.0000E+00  0.6000E+01  0.6000E+01
    -44.925  0.0000E+00  0.0000E+00  0.6000E+01  0.6000E+01
    -44.742  0.0000E+00  0.0000E+00  0.6000E+01  0.6000E+01
    -44.559  0.0000E+00  0.0000E+00  0.6000E+01  0.6000E+01
    -44.376  0.0000E+00  0.0000E+00  0.6000E+01  0.6000E+01
    -44.193  0.0000E+00  0.0000E+00  0.6000E+01  0.6000E+01
    -44.010  0.0000E+00  0.0000E+00  0.6000E+01  0.6000E+01
    -43.827  0.0000E+00  0.0000E+00  0.6000E+01  0.6000E+01
    -43.644  0.0000E+00  0.0000E+00  0.6000E+01  0.6000E+01
    -43.461  0.0000E+00  0.0000E+00  0.6000E+01  0.6000E+01
    -43.278  0.0000E+00  0.0000E+00  0.6000E+01  0.6000E+01
    -43.095  0.0000E+00  0.0000E+00  0.6000E+01  0.6000E+01
    -42.912  0.0000E+00  0.0000E+00  0.6000E+01  0.6000E+01
    -42.729  0.0000E+00  0.0000E+00  0.6000E+01  0.6000E+01
    -42.546  0.0000E+00  0.0000E+00  0.6000E+01  0.6000E+01
    -42.363  0.0000E+00  0.0000E+00  0.6000E+01  0.6000E+01
    -42.180  0.0000E+00  0.0000E+00  0.6000E+01  0.6000E+01
    -41.997  0.0000E+00  0.0000E+00  0.6000E+01  0.6000E+01
    -41.814  0.0000E+00  0.0000E+00  0.6000E+01  0.6000E+01
    -41.631  0.0000E+00  0.0000E+00  0.6000E+01  0.6000E+01
    -41.448  0.0000E+00  0.0000E+00  0.6000E+01  0.6000E+01
    -41.265  0.0000E+00  0.0000E+00  0.6000E+01  0.6000E+01
    -41.082  0.0000E+00  0.0000E+00  0.6000E+01  0.6000E+01
    -40.899  0.0000E+00  0.0000E+00  0.6000E+01  0.6000E+01
    -40.716  0.0000E+00  0.0000E+00  0.6000E+01  0.6000E+01
    -40.533  0.0000E+00  0.0000E+00  0.6000E+01  0.6000E+01
    -40.350  0.0000E+00  0.0000E+00  0.6000E+01  0.6000E+01
    -40.167  0.0000E+00  0.0000E+00  0.6000E+01  0.6000E+01
    -39.984  0.0000E+00  0.0000E+00  0.6000E+01  0.6000E+01
    -39.801  0.0000E+00  0.0000E+00  0.6000E+01  0.6000E+01
    -39.618  0.0000E+00  0.0000E+00  0.6000E+01  0.6000E+01
    -39.435  0.0000E+00  0.0000E+00  0.6000E+01  0.6000E+01
    -39.252  0.0000E+00  0.0000E+00  0.6000E+01  0.6000E+01
    -39.069  0.0000E+00  0.0000E+00  0.6000E+01  0.6000E+01
    -38.886  0.0000E+00  0.0000E+00  0.6000E+01  0.6000E+01
    -38.703  0.0000E+00  0.0000E+00  0.6000E+01  0.6000E+01
    -38.520  0.0000E+00  0.0000E+00  0.6000E+01  0.6000E+01
    -38.337  0.0000E+00  0.0000E+00  0.6000E+01  0.6000E+01
    -38.154  0.0000E+00  0.0000E+00  0.6000E+01  0.6000E+01
    -37.971  0.0000E+00  0.0000E+00  0.6000E+01  0.6000E+01
    -37.788  0.0000E+00  0.0000E+00  0.6000E+01  0.6000E+01
    -37.605  0.0000E+00  0.0000E+00  0.6000E+01  0.6000E+01
    -37.422  0.0000E+00  0.0000E+00  0.6000E+01  0.6000E+01
    -37.239  0.0000E+00  0.0000E+00  0.6000E+01  0.6000E+01
    -37.056  0.0000E+00  0.0000E+00  0.6000E+01  0.6000E+01
    -36.873  0.0000E+00  0.0000E+00  0.6000E+01  0.6000E+01
    -36.690  0.0000E+00  0.0000E+00  0.6000E+01  0.6000E+01
    -36.507  0.0000E+00  0.0000E+00  0.6000E+01  0.6000E+01
    -36.324  0.0000E+00  0.0000E+00  0.6000E+01  0.6000E+01
    -36.141  0.0000E+00  0.0000E+00  0.6000E+01  0.6000E+01
    -35.958  0.0000E+00  0.0000E+00  0.6000E+01  0.6000E+01
    -35.775  0.0000E+00  0.0000E+00  0.6000E+01  0.6000E+01
    -35.592  0.0000E+00  0.0000E+00  0.6000E+01  0.6000E+01
    -35.409  0.0000E+00  0.0000E+00  0.6000E+01  0.6000E+01
    -35.226  0.0000E+00  0.0000E+00  0.6000E+01  0.6000E+01
    -35.043  0.0000E+00  0.0000E+00  0.6000E+01  0.6000E+01
    -34.860  0.0000E+00  0.0000E+00  0.6000E+01  0.6000E+01
    -34.677  0.0000E+00  0.0000E+00  0.6000E+01  0.6000E+01
    -34.494  0.0000E+00  0.0000E+00  0.6000E+01  0.6000E+01
    -34.311  0.0000E+00  0.0000E+00  0.6000E+01  0.6000E+01
    -34.128  0.0000E+00  0.0000E+00  0.6000E+01  0.6000E+01
    -33.945  0.0000E+00  0.0000E+00  0.6000E+01  0.6000E+01
    -33.762  0.0000E+00  0.0000E+00  0.6000E+01  0.6000E+01
    -33.579  0.0000E+00  0.0000E+00  0.6000E+01  0.6000E+01
    -33.396  0.0000E+00  0.0000E+00  0.6000E+01  0.6000E+01
    -33.213  0.0000E+00  0.0000E+00  0.6000E+01  0.6000E+01
    -33.030  0.0000E+00  0.0000E+00  0.6000E+01  0.6000E+01
    -32.847  0.0000E+00  0.0000E+00  0.6000E+01  0.6000E+01
    -32.664  0.0000E+00  0.0000E+00  0.6000E+01  0.6000E+01
    -32.481  0.0000E+00  0.0000E+00  0.6000E+01  0.6000E+01
    -32.298  0.0000E+00  0.0000E+00  0.6000E+01  0.6000E+01
    -32.115  0.0000E+00  0.0000E+00  0.6000E+01  0.6000E+01
    -31.932  0.0000E+00  0.0000E+00  0.6000E+01  0.6000E+01
    -31.749  0.0000E+00  0.0000E+00  0.6000E+01  0.6000E+01
    -31.566  0.0000E+00  0.0000E+00  0.6000E+01  0.6000E+01
    -31.383  0.0000E+00  0.0000E+00  0.6000E+01  0.6000E+01
    -31.200  0.0000E+00  0.0000E+00  0.6000E+01  0.6000E+01
    -31.017  0.0000E+00  0.0000E+00  0.6000E+01  0.6000E+01
    -30.834  0.0000E+00  0.0000E+00  0.6000E+01  0.6000E+01
    -30.651  0.0000E+00  0.0000E+00  0.6000E+01  0.6000E+01
    -30.468  0.0000E+00  0.0000E+00  0.6000E+01  0.6000E+01
    -30.285  0.0000E+00  0.0000E+00  0.6000E+01  0.6000E+01
    -30.102  0.0000E+00  0.0000E+00  0.6000E+01  0.6000E+01
    -29.919  0.0000E+00  0.0000E+00  0.6000E+01  0.6000E+01
    -29.736  0.0000E+00  0.0000E+00  0.6000E+01  0.6000E+01
    -29.553  0.0000E+00  0.0000E+00  0.6000E+01  0.6000E+01
    -29.370  0.0000E+00  0.0000E+00  0.6000E+01  0.6000E+01
    -29.187  0.1093E+02  0.1093E+02  0.8000E+01  0.8000E+01
    -29.004  0.0000E+00  0.0000E+00  0.8000E+01  0.8000E+01
    -28.821  0.0000E+00  0.0000E+00  0.8000E+01  0.8000E+01
    -28.638  0.0000E+00  0.0000E+00  0.8000E+01  0.8000E+01
    -28.455  0.0000E+00  0.0000E+00  0.8000E+01  0.8000E+01
    -28.272  0.0000E+00  0.0000E+00  0.8000E+01  0.8000E+01
    -28.089  0.5120E+00  0.5120E+00  0.8094E+01  0.8094E+01
    -27.906  0.0000E+00  0.0000E+00  0.1000E+02  0.1000E+02
    -27.723  0.0000E+00  0.0000E+00  0.1000E+02  0.1000E+02
    -27.540  0.0000E+00  0.0000E+00  0.1000E+02  0.1000E+02
    -27.357  0.0000E+00  0.0000E+00  0.1000E+02  0.1000E+02
    -27.174  0.0000E+00  0.0000E+00  0.1000E+02  0.1000E+02
    -26.992  0.0000E+00  0.0000E+00  0.1000E+02  0.1000E+02
    -26.809  0.8465E-11  0.8465E-11  0.1200E+02  0.1200E+02
    -26.626  0.0000E+00  0.0000E+00  0.1400E+02  0.1400E+02
    -26.443  0.0000E+00  0.0000E+00  0.1400E+02  0.1400E+02
    -26.260  0.0000E+00  0.0000E+00  0.1400E+02  0.1400E+02
    -26.077  0.0000E+00  0.0000E+00  0.1800E+02  0.1800E+02
    -25.894  0.0000E+00  0.0000E+00  0.1800E+02  0.1800E+02
    -25.711  0.0000E+00  0.0000E+00  0.1800E+02  0.1800E+02
    -25.528  0.0000E+00  0.0000E+00  0.1800E+02  0.1800E+02
    -25.345  0.0000E+00  0.0000E+00  0.1800E+02  0.1800E+02
    -25.162  0.0000E+00  0.0000E+00  0.1800E+02  0.1800E+02
    -24.979  0.0000E+00  0.0000E+00  0.1800E+02  0.1800E+02
    -24.796  0.0000E+00  0.0000E+00  0.1800E+02  0.1800E+02
    -24.613  0.0000E+00  0.0000E+00  0.1800E+02  0.1800E+02
    -24.430  0.0000E+00  0.0000E+00  0.1800E+02  0.1800E+02
    -24.247  0.0000E+00  0.0000E+00  0.1800E+02  0.1800E+02
    -24.064  0.0000E+00  0.0000E+00  0.1800E+02  0.1800E+02
    -23.881  0.0000E+00  0.0000E+00  0.1800E+02  0.1800E+02
    -23.698  0.0000E+00  0.0000E+00  0.1800E+02  0.1800E+02
    -23.515  0.0000E+00  0.0000E+00  0.2000E+02  0.2000E+02
    -23.332  0.0000E+00  0.0000E+00  0.2000E+02  0.2000E+02
    -23.149  0.0000E+00  0.0000E+00  0.2200E+02  0.2200E+02
    -22.966  0.0000E+00  0.0000E+00  0.2200E+02  0.2200E+02
    -22.783  0.0000E+00  0.0000E+00  0.2200E+02  0.2200E+02
    -22.600  0.0000E+00  0.0000E+00  0.2400E+02  0.2400E+02
    -22.417  0.1093E+02  0.1093E+02  0.2600E+02  0.2600E+02
    -22.234  0.9487E+00  0.9487E+00  0.2817E+02  0.2817E+02
    -22.051  0.1344E-01  0.1344E-01  0.3000E+02  0.3000E+02
    -21.868  0.0000E+00  0.0000E+00  0.3200E+02  0.3200E+02
    -21.685  0.0000E+00  0.0000E+00  0.3200E+02  0.3200E+02
    -21.502  0.1093E+02  0.1093E+02  0.3400E+02  0.3400E+02
    -21.319  0.0000E+00  0.0000E+00  0.3400E+02  0.3400E+02
    -21.136  0.3136E-04  0.3136E-04  0.3400E+02  0.3400E+02
    -20.953  0.0000E+00  0.0000E+00  0.3600E+02  0.3600E+02
    -20.770  0.1093E+02  0.1093E+02  0.3800E+02  0.3800E+02
    -20.587  0.0000E+00  0.0000E+00  0.3800E+02  0.3800E+02
    -20.404  0.0000E+00  0.0000E+00  0.3800E+02  0.3800E+02
    -20.221  0.0000E+00  0.0000E+00  0.3800E+02  0.3800E+02
    -20.038  0.0000E+00  0.0000E+00  0.3800E+02  0.3800E+02
    -19.855  0.0000E+00  0.0000E+00  0.3800E+02  0.3800E+02
    -19.672  0.1172E-05  0.1172E-05  0.3800E+02  0.3800E+02
    -19.489  0.0000E+00  0.0000E+00  0.4000E+02  0.4000E+02
    -19.306  0.1093E+02  0.1093E+02  0.4200E+02  0.4200E+02
    -19.123  0.0000E+00  0.0000E+00  0.4200E+02  0.4200E+02
    -18.940  0.0000E+00  0.0000E+00  0.4200E+02  0.4200E+02
    -18.757  0.9540E+01  0.9540E+01  0.4375E+02  0.4375E+02
    -18.574  0.0000E+00  0.0000E+00  0.4400E+02  0.4400E+02
    -18.391  0.0000E+00  0.0000E+00  0.4600E+02  0.4600E+02
    -18.208  0.1093E+02  0.1093E+02  0.4800E+02  0.4800E+02
    -18.025  0.1093E+02  0.1093E+02  0.5000E+02  0.5000E+02
    -17.842  0.6022E+01  0.6022E+01  0.5110E+02  0.5110E+02
    -17.659  0.1054E+00  0.1054E+00  0.5202E+02  0.5202E+02
    -17.476  0.0000E+00  0.0000E+00  0.5600E+02  0.5600E+02
    -17.293  0.1093E+02  0.1093E+02  0.5800E+02  0.5800E+02
    -17.110  0.0000E+00  0.0000E+00  0.5800E+02  0.5800E+02
    -16.927  0.1018E+02  0.1018E+02  0.5986E+02  0.5986E+02
    -16.744  0.2700E-12  0.2700E-12  0.6000E+02  0.6000E+02
    -16.561  0.0000E+00  0.0000E+00  0.6200E+02  0.6200E+02
    -16.378  0.0000E+00  0.0000E+00  0.6200E+02  0.6200E+02
    -16.195  0.0000E+00  0.0000E+00  0.6200E+02  0.6200E+02
    -16.012  0.0000E+00  0.0000E+00  0.6200E+02  0.6200E+02
    -15.829  0.0000E+00  0.0000E+00  0.6400E+02  0.6400E+02
    -15.646  0.1093E+02  0.1093E+02  0.6600E+02  0.6600E+02
    -15.463  0.0000E+00  0.0000E+00  0.6600E+02  0.6600E+02
    -15.280  0.2550E+01  0.2550E+01  0.6647E+02  0.6647E+02
    -15.097  0.0000E+00  0.0000E+00  0.7000E+02  0.7000E+02
    -14.914  0.0000E+00  0.0000E+00  0.7000E+02  0.7000E+02
    -14.731  0.2520E+02  0.2520E+02  0.7461E+02  0.7461E+02
    -14.548  0.3061E-11  0.3061E-11  0.7600E+02  0.7600E+02
    -14.365  0.2070E+01  0.2070E+01  0.7838E+02  0.7838E+02
    -14.182  0.0000E+00  0.0000E+00  0.8000E+02  0.8000E+02
    -13.999  0.1389E+02  0.1389E+02  0.8454E+02  0.8454E+02
    -13.816  0.9944E+01  0.9944E+01  0.8982E+02  0.8982E+02
    -13.633  0.1395E-13  0.1395E-13  0.9000E+02  0.9000E+02
    -13.450  0.1093E+02  0.1093E+02  0.9400E+02  0.9400E+02
    -13.267  0.1094E+02  0.1094E+02  0.9600E+02  0.9600E+02
    -13.084  0.0000E+00  0.0000E+00  0.1000E+03  0.1000E+03
    -12.901  0.1082E+02  0.1082E+02  0.1040E+03  0.1040E+03
    -12.718  0.1188E+02  0.1188E+02  0.1062E+03  0.1062E+03
    -12.535  0.1093E+02  0.1093E+02  0.1100E+03  0.1100E+03
    -12.352  0.1093E+02  0.1093E+02  0.1120E+03  0.1120E+03
    -12.169  0.1093E+02  0.1093E+02  0.1160E+03  0.1160E+03
    -11.986  0.2317E+00  0.2317E+00  0.1180E+03  0.1180E+03
    -11.803  0.0000E+00  0.0000E+00  0.1200E+03  0.1200E+03
    -11.620  0.1131E+02  0.1131E+02  0.1221E+03  0.1221E+03
    -11.437  0.0000E+00  0.0000E+00  0.1240E+03  0.1240E+03
    -11.254  0.1870E+02  0.1870E+02  0.1274E+03  0.1274E+03
    -11.071  0.1093E+02  0.1093E+02  0.1300E+03  0.1300E+03
    -10.888  0.8439E+01  0.8439E+01  0.1315E+03  0.1315E+03
    -10.705  0.1210E+02  0.1210E+02  0.1342E+03  0.1342E+03
    -10.522  0.0000E+00  0.0000E+00  0.1380E+03  0.1380E+03
    -10.339  0.0000E+00  0.0000E+00  0.1400E+03  0.1400E+03
    -10.156  0.9101E-14  0.9101E-14  0.1400E+03  0.1400E+03
     -9.973  0.1720E+02  0.1720E+02  0.1451E+03  0.1451E+03
     -9.790  0.1139E+02  0.1139E+02  0.1481E+03  0.1481E+03
     -9.607  0.0000E+00  0.0000E+00  0.1520E+03  0.1520E+03
     -9.424  0.2366E-08  0.2366E-08  0.1520E+03  0.1520E+03
     -9.241  0.0000E+00  0.0000E+00  0.1540E+03  0.1540E+03
     -9.058  0.1093E+02  0.1093E+02  0.1560E+03  0.1560E+03
     -8.875  0.0000E+00  0.0000E+00  0.1560E+03  0.1560E+03
     -8.692  0.1093E+02  0.1093E+02  0.1580E+03  0.1580E+03
     -8.509  0.0000E+00  0.0000E+00  0.1580E+03  0.1580E+03
     -8.326  0.0000E+00  0.0000E+00  0.1600E+03  0.1600E+03
     -8.143  0.0000E+00  0.0000E+00  0.1600E+03  0.1600E+03
     -7.960  0.0000E+00  0.0000E+00  0.1600E+03  0.1600E+03
     -7.777  0.0000E+00  0.0000E+00  0.1600E+03  0.1600E+03
     -7.594  0.4047E-12  0.4047E-12  0.1600E+03  0.1600E+03
     -7.411  0.6067E-15  0.6067E-15  0.1620E+03  0.1620E+03
     -7.228  0.1093E+02  0.1093E+02  0.1660E+03  0.1660E+03
     -7.045  0.0000E+00  0.0000E+00  0.1660E+03  0.1660E+03
     -6.862  0.0000E+00  0.0000E+00  0.1660E+03  0.1660E+03
     -6.679  0.0000E+00  0.0000E+00  0.1660E+03  0.1660E+03
     -6.496  0.0000E+00  0.0000E+00  0.1660E+03  0.1660E+03
     -6.313  0.0000E+00  0.0000E+00  0.1660E+03  0.1660E+03
     -6.131  0.0000E+00  0.0000E+00  0.1660E+03  0.1660E+03
     -5.948  0.0000E+00  0.0000E+00  0.1660E+03  0.1660E+03
     -5.765  0.0000E+00  0.0000E+00  0.1680E+03  0.1680E+03
     -5.582  0.0000E+00  0.0000E+00  0.1680E+03  0.1680E+03
     -5.399  0.0000E+00  0.0000E+00  0.1680E+03  0.1680E+03
     -5.216  0.0000E+00  0.0000E+00  0.1680E+03  0.1680E+03
     -5.033  0.3370E-05  0.3370E-05  0.1680E+03  0.1680E+03
     -4.850  0.1093E+02  0.1093E+02  0.1720E+03  0.1720E+03
     -4.667  0.0000E+00  0.0000E+00  0.1720E+03  0.1720E+03
     -4.484  0.5681E+01  0.5681E+01  0.1730E+03  0.1730E+03
     -4.301  0.0000E+00  0.0000E+00  0.1740E+03  0.1740E+03
     -4.118  0.1772E+02  0.1772E+02  0.1772E+03  0.1772E+03
     -3.935  0.2183E+02  0.2183E+02  0.1820E+03  0.1820E+03
     -3.752  0.0000E+00  0.0000E+00  0.1820E+03  0.1820E+03
     -3.569  0.1093E+02  0.1093E+02  0.1840E+03  0.1840E+03
     -3.386  0.1093E+02  0.1093E+02  0.1860E+03  0.1860E+03
     -3.203  0.1093E+02  0.1093E+02  0.1880E+03  0.1880E+03
     -3.020  0.1067E-11  0.1067E-11  0.1880E+03  0.1880E+03
     -2.837  0.0000E+00  0.0000E+00  0.1900E+03  0.1900E+03
     -2.654  0.0000E+00  0.0000E+00  0.1920E+03  0.1920E+03
     -2.471  0.0000E+00  0.0000E+00  0.1920E+03  0.1920E+03
     -2.288  0.0000E+00  0.0000E+00  0.1920E+03  0.1920E+03
     -2.105  0.0000E+00  0.0000E+00  0.1920E+03  0.1920E+03
     -1.922  0.0000E+00  0.0000E+00  0.1920E+03  0.1920E+03
     -1.739  0.6609E+01  0.6608E+01  0.1952E+03  0.1952E+03
     -1.556  0.0000E+00  0.0000E+00  0.1980E+03  0.1980E+03
     -1.373  0.1085E+02  0.1085E+02  0.2000E+03  0.2000E+03
     -1.190  0.1093E+02  0.1093E+02  0.2020E+03  0.2020E+03
     -1.007  0.8037E+01  0.8036E+01  0.2075E+03  0.2075E+03
     -0.824  0.0000E+00  0.0000E+00  0.2100E+03  0.2100E+03
     -0.641  0.1068E+02  0.1068E+02  0.2140E+03  0.2140E+03
     -0.458  0.7107E+00  0.7109E+00  0.2181E+03  0.2181E+03
     -0.275  0.1348E+02  0.1348E+02  0.2245E+03  0.2245E+03
     -0.092  0.1093E+02  0.1093E+02  0.2280E+03  0.2280E+03
      0.091  0.1179E+02  0.1179E+02  0.2342E+03  0.2342E+03
      0.274  0.1100E+02  0.1100E+02  0.2400E+03  0.2400E+03
      0.457  0.2254E+02  0.2254E+02  0.2461E+03  0.2461E+03
      0.640  0.1729E+02  0.1729E+02  0.2532E+03  0.2532E+03
      0.823  0.0000E+00  0.0000E+00  0.2560E+03  0.2560E+03
      1.006  0.0000E+00  0.0000E+00  0.2560E+03  0.2560E+03
      1.189  0.0000E+00  0.0000E+00  0.2560E+03  0.2560E+03
      1.372  0.0000E+00  0.0000E+00  0.2560E+03  0.2560E+03
      1.555  0.0000E+00  0.0000E+00  0.2560E+03  0.2560E+03
      1.738  0.0000E+00  0.0000E+00  0.2560E+03  0.2560E+03
      1.921  0.0000E+00  0.0000E+00  0.2560E+03  0.2560E+03
      2.104  0.0000E+00  0.0000E+00  0.2560E+03  0.2560E+03
      2.287  0.0000E+00  0.0000E+00  0.2560E+03  0.2560E+03
      2.470  0.0000E+00  0.0000E+00  0.2560E+03  0.2560E+03
      2.653  0.0000E+00  0.0000E+00  0.2560E+03  0.2560E+03
      2.836  0.0000E+00  0.0000E+00  0.2560E+03  0.2560E+03
      3.019  0.0000E+00  0.0000E+00  0.2560E+03  0.2560E+03
      3.202  0.0000E+00  0.0000E+00  0.2560E+03  0.2560E+03
