   55   55    1    2
  0.1454545E+03  0.2000000E-08  0.2000000E-08  0.2000000E-08  0.5000000E-15
  1.000000000000000E-004
  CAR 
 c2_oh2_ruthenium_mol                    
    166      1    128
 
  0.0000000E+00  0.0000000E+00  0.0000000E+00  0.1000000E+01
    1      -49.199988    -49.199988
    2      -49.118722    -49.118722
    3      -48.821540    -48.821540
    4      -29.264471    -29.264471
    5      -28.077601    -28.077601
    6      -26.921091    -26.921091
    7      -26.758522    -26.758522
    8      -26.199955    -26.199955
    9      -26.172680    -26.172680
   10      -23.609624    -23.609624
   11      -23.257086    -23.257086
   12      -22.689276    -22.689276
   13      -22.464366    -22.464366
   14      -22.354741    -22.354741
   15      -22.224112    -22.224112
   16      -22.029330    -22.029330
   17      -21.570908    -21.570908
   18      -21.103714    -21.103714
   19      -20.826348    -20.826348
   20      -19.635184    -19.635184
   21      -19.385295    -19.385295
   22      -18.764963    -18.764963
   23      -18.481303    -18.481303
   24      -18.266151    -18.266151
   25      -18.077454    -18.077454
   26      -17.842851    -17.842850
   27      -17.642408    -17.642408
   28      -17.616071    -17.616071
   29      -17.337403    -17.337403
   30      -16.937519    -16.937519
   31      -16.690727    -16.690727
   32      -15.922359    -15.922359
   33      -15.701649    -15.701649
   34      -15.274921    -15.274921
   35      -15.217156    -15.217156
   36      -14.802741    -14.802741
   37      -14.753372    -14.753372
   38      -14.727510    -14.727510
   39      -14.497121    -14.497121
   40      -14.358887    -14.358887
   41      -14.117366    -14.117366
   42      -14.024204    -14.024204
   43      -13.994814    -13.994814
   44      -13.965816    -13.965816
   45      -13.825612    -13.825612
   46      -13.577212    -13.577212
   47      -13.497037    -13.497037
   48      -13.341827    -13.341827
   49      -13.245369    -13.245369
   50      -13.206330    -13.206330
   51      -13.023334    -13.023334
   52      -12.917700    -12.917700
   53      -12.750141    -12.750141
   54      -12.708568    -12.708568
   55      -12.590239    -12.590239
   56      -12.395312    -12.395312
   57      -12.279334    -12.279334
   58      -12.244353    -12.244353
   59      -12.135451    -12.135451
   60      -11.971873    -11.971873
   61      -11.632571    -11.632571
   62      -11.610108    -11.610108
   63      -11.318121    -11.318121
   64      -11.258185    -11.258185
   65      -11.115136    -11.115136
   66      -10.893551    -10.893551
   67      -10.755504    -10.755504
   68      -10.696514    -10.696514
   69      -10.653617    -10.653617
   70      -10.440131    -10.440131
   71      -10.099977    -10.099977
   72      -10.046385    -10.046385
   73       -9.974637     -9.974637
   74       -9.836821     -9.836821
   75       -9.778152     -9.778152
   76       -9.722294     -9.722294
   77       -9.380213     -9.380213
   78       -9.096088     -9.096088
   79       -8.718386     -8.718386
   80       -8.409547     -8.409547
   81       -7.541540     -7.541540
   82       -7.353016     -7.353016
   83       -7.255816     -7.255816
   84       -5.880715     -5.880715
   85       -4.997302     -4.997302
   86       -4.897051     -4.897050
   87       -4.483935     -4.483935
   88       -4.195388     -4.195388
   89       -4.119781     -4.119781
   90       -3.995602     -3.995602
   91       -3.954236     -3.954236
   92       -3.609447     -3.609447
   93       -3.459195     -3.459195
   94       -3.274900     -3.274900
   95       -2.967668     -2.967668
   96       -2.746149     -2.746149
   97       -1.844701     -1.844700
   98       -1.740593     -1.740592
   99       -1.644890     -1.644890
  100       -1.389912     -1.389910
  101       -1.246652     -1.246652
  102       -1.164662     -1.164660
  103       -1.096679     -1.096680
  104       -1.011199     -1.011198
  105       -0.929386     -0.929385
  106       -0.735013     -0.735012
  107       -0.654877     -0.654877
  108       -0.614831     -0.614830
  109       -0.543252     -0.543252
  110       -0.447073     -0.447073
  111       -0.416984     -0.416984
  112       -0.336423     -0.336423
  113       -0.269642     -0.269640
  114       -0.169198     -0.169197
  115       -0.063951     -0.063951
  116        0.002088      0.002087
  117        0.018700      0.018701
  118        0.101199      0.101200
  119        0.128481      0.128483
  120        0.206981      0.206982
  121        0.291750      0.291754
  122        0.393288      0.393290
  123        0.414233      0.414235
  124        0.468040      0.468041
  125        0.551163      0.551167
  126        0.605477      0.605480
  127        0.638706      0.638706
  128        0.706712      0.706602
