       N       E                     dE             d eps       ncg     rms          rms(c)
DAV:   1     0.910966370234E+03    0.91097E+03   -0.58801E+04   768   0.974E+02
DAV:   2    -0.694255919960E+02   -0.98039E+03   -0.97417E+03  1024   0.159E+02
DAV:   3    -0.391916745959E+03   -0.32249E+03   -0.32209E+03   832   0.850E+01
DAV:   4    -0.410355211682E+03   -0.18438E+02   -0.18417E+02   640   0.256E+01
DAV:   5    -0.410622108450E+03   -0.26690E+00   -0.26680E+00   896   0.316E+00    0.564E+01
DAV:   6    -0.391504499994E+03    0.19118E+02   -0.28904E+02   512   0.213E+01    0.374E+01
DAV:   7    -0.381862788813E+03    0.96417E+01   -0.22029E+01   768   0.188E+01    0.228E+01
DAV:   8    -0.378033698204E+03    0.38291E+01   -0.16065E+01   768   0.870E+00    0.876E+00
DAV:   9    -0.377065136623E+03    0.96856E+00   -0.79456E+00   768   0.497E+00    0.338E+00
DAV:  10    -0.377038273759E+03    0.26863E-01   -0.20065E-01   768   0.115E+00    0.247E+00
DAV:  11    -0.376891310393E+03    0.14696E+00   -0.19029E-01   768   0.993E-01    0.102E+00
DAV:  12    -0.376820014352E+03    0.71296E-01   -0.10248E-01   768   0.688E-01    0.700E-01
DAV:  13    -0.376795867727E+03    0.24147E-01   -0.28066E-02   768   0.455E-01    0.434E-01
DAV:  14    -0.376789692889E+03    0.61748E-02   -0.11161E-02   768   0.272E-01    0.287E-01
DAV:  15    -0.376793599987E+03   -0.39071E-02   -0.35879E-03   768   0.170E-01    0.224E-01
DAV:  16    -0.376801739456E+03   -0.81395E-02   -0.17921E-03   768   0.133E-01    0.163E-01
DAV:  17    -0.376807158951E+03   -0.54195E-02   -0.13648E-03   768   0.107E-01    0.858E-02
DAV:  18    -0.376812196292E+03   -0.50373E-02   -0.55814E-04   768   0.707E-02    0.626E-02
DAV:  19    -0.376816496907E+03   -0.43006E-02   -0.31859E-04   768   0.534E-02    0.390E-02
DAV:  20    -0.376818799166E+03   -0.23023E-02   -0.11231E-04   768   0.307E-02    0.261E-02
DAV:  21    -0.376820537890E+03   -0.17387E-02   -0.53064E-05   768   0.214E-02    0.167E-02
DAV:  22    -0.376821920549E+03   -0.13827E-02   -0.43412E-05   768   0.167E-02    0.974E-03
DAV:  23    -0.376822524210E+03   -0.60366E-03   -0.13287E-05   640   0.841E-03    0.750E-03
DAV:  24    -0.376822937132E+03   -0.41292E-03   -0.99216E-06   640   0.646E-03    0.340E-03
DAV:  25    -0.376823156674E+03   -0.21954E-03   -0.43580E-06   640   0.400E-03    0.229E-03
DAV:  26    -0.376823297577E+03   -0.14090E-03   -0.22549E-06   640   0.278E-03    0.133E-03
DAV:  27    -0.376823362643E+03   -0.65066E-04   -0.99342E-07   640   0.181E-03    0.978E-04
DAV:  28    -0.376823393170E+03   -0.30527E-04   -0.28333E-07   640   0.111E-03    0.612E-04
DAV:  29    -0.376823414161E+03   -0.20991E-04   -0.16412E-07   640   0.893E-04    0.386E-04
DAV:  30    -0.376823422372E+03   -0.82104E-05    0.31177E-08   640   0.507E-04
   1 F= -.37682342E+03 E0= -.37682342E+03  d E =-.344656E-25  mag=     0.0000
