 vasp.5.3.5 31Mar14 (build Apr 08 2014 12:00:03) complex                        
  
 VASP binary ID code NSC-NSCPATCH-BUILD02 date 2017.03.15  18:38:24
 running on   64 total cores
 distrk:  each k-point on   64 cores,    1 groups
 distr:  one band on NCORES_PER_BAND=   1 cores,   64 groups


--------------------------------------------------------------------------------------------------------


 INCAR:
 POTCAR:    PAW_PBE C_h 06Feb2004                 
 POTCAR:    PAW_PBE C_h 06Feb2004                 
 POTCAR:    PAW_PBE H 15Jun2001                   
 POTCAR:    PAW_PBE N_h 06Feb2004                 
 POTCAR:    PAW_PBE O_h 06Feb2004                 
 POTCAR:    PAW_PBE Ru_pv 28Jan2005               

 ----------------------------------------------------------------------------- 
|                                                                             |
|           W    W    AA    RRRRR   N    N  II  N    N   GGGG   !!!           |
|           W    W   A  A   R    R  NN   N  II  NN   N  G    G  !!!           |
|           W    W  A    A  R    R  N N  N  II  N N  N  G       !!!           |
|           W WW W  AAAAAA  RRRRR   N  N N  II  N  N N  G  GGG   !            |
|           WW  WW  A    A  R   R   N   NN  II  N   NN  G    G                |
|           W    W  A    A  R    R  N    N  II  N    N   GGGG   !!!           |
|                                                                             |
|      For optimal performance we recommend to set                            |
|        NCORE= 4 - approx SQRT( number of cores)                             |
|      NCORE specifies how many cores store one orbital (NPAR=cpu/NCORE).     |
|      This setting can  greatly improve the performance of VASP for DFT.     |
|      The default, NPAR=number of cores might be grossly inefficient         |
|      on modern multi-core architectures or massively parallel machines.     |
|      Do your own testing !!!!                                               |
|      Unfortunately you need to use the default for GW and RPA calculations. |
|      (for HF NCORE is supported but not extensively tested yet)             |
|                                                                             |
 ----------------------------------------------------------------------------- 

 POTCAR:    PAW_PBE C_h 06Feb2004                 
   VRHFIN =C: s2p2                                                              
   LEXCH  = PE                                                                  
   EATOM  =   147.1560 eV,   10.8157 Ry                                         
                                                                                
   TITEL  = PAW_PBE C_h 06Feb2004                                               
   LULTRA =        F    use ultrasoft PP ?                                      
   IUNSCR =        1    unscreen: 0-lin 1-nonlin 2-no                           
   RPACOR =    0.800    partial core radius                                     
   POMASS =   12.011; ZVAL   =    4.000    mass and valenz                      
   RCORE  =    1.100    outmost cutoff radius                                   
   RWIGS  =    1.630; RWIGS  =    0.863    wigner-seitz radius (au A)           
   ENMAX  =  700.000; ENMIN  =  500.000 eV                                      
   ICORE  =        2    local potential                                         
   LCOR   =        T    correct aug charges                                     
   LPAW   =        T    paw PP                                                  
   EAUG   =  946.768                                                            
   DEXC   =    0.000                                                            
   RMAX   =    1.128    core radius for proj-oper                               
   RAUG   =    1.300    factor for augmentation sphere                          
   RDEP   =    1.162    radius for radial grids                                 
   RDEPT  =    1.088    core radius for aug-charge                              
                                                                                
   Atomic configuration                                                         
    4 entries                                                                   
     n  l   j            E        occ.                                          
     1  0  0.50      -273.3789   2.0000                                         
     2  0  0.50       -13.7508   2.0000                                         
     2  1  0.50        -5.2854   2.0000                                         
     3  2  1.50        -5.4423   0.0000                                         
   Description                                                                  
     l       E           TYP  RCUT    TYP  RCUT                                 
     0    -13.7508458     23  1.100                                             
     0     -8.2022199     23  1.100                                             
     1     -5.2854383     23  1.100                                             
     1      1.1560700     23  1.100                                             
     2     -5.4423304      7  1.100                                             
  local pseudopotential read in
  partial core-charges read in
  partial kinetic energy density read in
  atomic valenz-charges read in
  non local Contribution for L=           0  read in
    real space projection operators read in
  non local Contribution for L=           0  read in
    real space projection operators read in
  non local Contribution for L=           1  read in
    real space projection operators read in
  non local Contribution for L=           1  read in
    real space projection operators read in
    PAW grid and wavefunctions read in
 
   number of l-projection  operators is LMAX  =           4
   number of lm-projection operators is LMMAX =           8
 
 POTCAR:    PAW_PBE C_h 06Feb2004                 
   VRHFIN =C: s2p2                                                              
   LEXCH  = PE                                                                  
   EATOM  =   147.1560 eV,   10.8157 Ry                                         
                                                                                
   TITEL  = PAW_PBE C_h 06Feb2004                                               
   LULTRA =        F    use ultrasoft PP ?                                      
   IUNSCR =        1    unscreen: 0-lin 1-nonlin 2-no                           
   RPACOR =    0.800    partial core radius                                     
   POMASS =   12.011; ZVAL   =    4.000    mass and valenz                      
   RCORE  =    1.100    outmost cutoff radius                                   
   RWIGS  =    1.630; RWIGS  =    0.863    wigner-seitz radius (au A)           
   ENMAX  =  700.000; ENMIN  =  500.000 eV                                      
   ICORE  =        2    local potential                                         
   LCOR   =        T    correct aug charges                                     
   LPAW   =        T    paw PP                                                  
   EAUG   =  946.768                                                            
   DEXC   =    0.000                                                            
   RMAX   =    1.128    core radius for proj-oper                               
   RAUG   =    1.300    factor for augmentation sphere                          
   RDEP   =    1.162    radius for radial grids                                 
   RDEPT  =    1.088    core radius for aug-charge                              
                                                                                
   Atomic configuration                                                         
    4 entries                                                                   
     n  l   j            E        occ.                                          
     1  0  0.50      -273.3789   2.0000                                         
     2  0  0.50       -13.7508   2.0000                                         
     2  1  0.50        -5.2854   2.0000                                         
     3  2  1.50        -5.4423   0.0000                                         
   Description                                                                  
     l       E           TYP  RCUT    TYP  RCUT                                 
     0    -13.7508458     23  1.100                                             
     0     -8.2022199     23  1.100                                             
     1     -5.2854383     23  1.100                                             
     1      1.1560700     23  1.100                                             
     2     -5.4423304      7  1.100                                             
  local pseudopotential read in
  partial core-charges read in
  partial kinetic energy density read in
  atomic valenz-charges read in
  non local Contribution for L=           0  read in
    real space projection operators read in
  non local Contribution for L=           0  read in
    real space projection operators read in
  non local Contribution for L=           1  read in
    real space projection operators read in
  non local Contribution for L=           1  read in
    real space projection operators read in
    PAW grid and wavefunctions read in
 
   number of l-projection  operators is LMAX  =           4
   number of lm-projection operators is LMMAX =           8
 
 POTCAR:    PAW_PBE H 15Jun2001                   
   VRHFIN =H: ultrasoft test                                                    
   LEXCH  = PE                                                                  
   EATOM  =    12.4884 eV,    0.9179 Ry                                         
                                                                                
   TITEL  = PAW_PBE H 15Jun2001                                                 
   LULTRA =        F    use ultrasoft PP ?                                      
   IUNSCR =        0    unscreen: 0-lin 1-nonlin 2-no                           
   RPACOR =    0.000    partial core radius                                     
   POMASS =    1.000; ZVAL   =    1.000    mass and valenz                      
   RCORE  =    1.100    outmost cutoff radius                                   
   RWIGS  =    0.700; RWIGS  =    0.370    wigner-seitz radius (au A)           
   ENMAX  =  250.000; ENMIN  =  200.000 eV                                      
   RCLOC  =    0.701    cutoff for local pot                                    
   LCOR   =        T    correct aug charges                                     
   LPAW   =        T    paw PP                                                  
   EAUG   =  400.000                                                            
   RMAX   =    1.123    core radius for proj-oper                               
   RAUG   =    1.200    factor for augmentation sphere                          
   RDEP   =    1.112    radius for radial grids                                 
   RDEPT  =    0.926    core radius for aug-charge                              
                                                                                
   Atomic configuration                                                         
    2 entries                                                                   
     n  l   j            E        occ.                                          
     1  0  0.50        -6.4927   1.0000                                         
     2  1  0.50        -3.4015   0.0000                                         
   Description                                                                  
     l       E           TYP  RCUT    TYP  RCUT                                 
     0     -6.4927494     23  1.100                                             
     0      6.8029130     23  1.100                                             
     1     -4.0817478     23  1.100                                             
  local pseudopotential read in
  atomic valenz-charges read in
  non local Contribution for L=           0  read in
    real space projection operators read in
  non local Contribution for L=           0  read in
    real space projection operators read in
  non local Contribution for L=           1  read in
    real space projection operators read in
    PAW grid and wavefunctions read in
 
   number of l-projection  operators is LMAX  =           3
   number of lm-projection operators is LMMAX =           5
 
 POTCAR:    PAW_PBE N_h 06Feb2004                 
   VRHFIN =N: s2p3                                                              
   LEXCH  = PE                                                                  
   EATOM  =   264.5486 eV,   19.4438 Ry                                         
                                                                                
   TITEL  = PAW_PBE N_h 06Feb2004                                               
   LULTRA =        F    use ultrasoft PP ?                                      
   IUNSCR =        1    unscreen: 0-lin 1-nonlin 2-no                           
   RPACOR =    0.800    partial core radius                                     
   POMASS =   14.001; ZVAL   =    5.000    mass and valenz                      
   RCORE  =    1.100    outmost cutoff radius                                   
   RWIGS  =    1.480; RWIGS  =    0.783    wigner-seitz radius (au A)           
   ENMAX  =  700.000; ENMIN  =  500.000 eV                                      
   ICORE  =        2    local potential                                         
   LCOR   =        T    correct aug charges                                     
   LPAW   =        T    paw PP                                                  
   EAUG   =  904.640                                                            
   DEXC   =    0.000                                                            
   RMAX   =    1.127    core radius for proj-oper                               
   RAUG   =    1.300    factor for augmentation sphere                          
   RDEP   =    1.115    radius for radial grids                                 
   RDEPT  =    1.106    core radius for aug-charge                              
                                                                                
   Atomic configuration                                                         
    4 entries                                                                   
     n  l   j            E        occ.                                          
     1  0  0.50      -384.7179   2.0000                                         
     2  0  0.50       -18.5828   2.0000                                         
     2  1  0.50        -7.0898   3.0000                                         
     3  2  1.50        -6.8029   0.0000                                         
   Description                                                                  
     l       E           TYP  RCUT    TYP  RCUT                                 
     0    -18.5828117     23  1.100                                             
     0    -15.0750597     23  1.100                                             
     1     -7.0897851     23  1.100                                             
     1     -1.9663412     23  1.100                                             
     2     -6.8029130      7  1.100                                             
  local pseudopotential read in
  partial core-charges read in
  partial kinetic energy density read in
  kinetic energy density of atom read in
  atomic valenz-charges read in
  non local Contribution for L=           0  read in
    real space projection operators read in
  non local Contribution for L=           0  read in
    real space projection operators read in
  non local Contribution for L=           1  read in
    real space projection operators read in
  non local Contribution for L=           1  read in
    real space projection operators read in
    PAW grid and wavefunctions read in
 
   number of l-projection  operators is LMAX  =           4
   number of lm-projection operators is LMMAX =           8
 
 POTCAR:    PAW_PBE O_h 06Feb2004                 
   VRHFIN =O: s2p4                                                              
   LEXCH  = PE                                                                  
   EATOM  =   432.3788 eV,   31.7789 Ry                                         
                                                                                
   TITEL  = PAW_PBE O_h 06Feb2004                                               
   LULTRA =        F    use ultrasoft PP ?                                      
   IUNSCR =        1    unscreen: 0-lin 1-nonlin 2-no                           
   RPACOR =    0.800    partial core radius                                     
   POMASS =   16.000; ZVAL   =    6.000    mass and valenz                      
   RCORE  =    1.100    outmost cutoff radius                                   
   RWIGS  =    1.400; RWIGS  =    0.741    wigner-seitz radius (au A)           
   ENMAX  =  700.000; ENMIN  =  500.000 eV                                      
   ICORE  =        2    local potential                                         
   LCOR   =        T    correct aug charges                                     
   LPAW   =        T    paw PP                                                  
   EAUG   =  888.804                                                            
   DEXC   =    0.000                                                            
   RMAX   =    1.128    core radius for proj-oper                               
   RAUG   =    1.300    factor for augmentation sphere                          
   RDEP   =    1.125    radius for radial grids                                 
   RDEPT  =    1.088    core radius for aug-charge                              
                                                                                
   Atomic configuration                                                         
    4 entries                                                                   
     n  l   j            E        occ.                                          
     1  0  0.50      -514.6923   2.0000                                         
     2  0  0.50       -23.9615   2.0000                                         
     2  1  0.50        -9.0305   4.0000                                         
     3  2  1.50        -9.5241   0.0000                                         
   Description                                                                  
     l       E           TYP  RCUT    TYP  RCUT                                 
     0    -23.9615319     23  1.100                                             
     0    -25.3221145     23  1.100                                             
     1     -9.0304911     23  1.100                                             
     1     -5.4802209     23  1.100                                             
     2     -9.5240782      7  1.100                                             
  local pseudopotential read in
  partial core-charges read in
  partial kinetic energy density read in
  atomic valenz-charges read in
  non local Contribution for L=           0  read in
    real space projection operators read in
  non local Contribution for L=           0  read in
    real space projection operators read in
  non local Contribution for L=           1  read in
    real space projection operators read in
  non local Contribution for L=           1  read in
    real space projection operators read in
    PAW grid and wavefunctions read in
 
   number of l-projection  operators is LMAX  =           4
   number of lm-projection operators is LMMAX =           8
 
 POTCAR:    PAW_PBE Ru_pv 28Jan2005               
   VRHFIN =Ru: 4p5s4d                                                           
   LEXCH  = PE                                                                  
   EATOM  =  1873.4746 eV,  137.6965 Ry                                         
                                                                                
   TITEL  = PAW_PBE Ru_pv 28Jan2005                                             
   LULTRA =        F    use ultrasoft PP ?                                      
   IUNSCR =        1    unscreen: 0-lin 1-nonlin 2-no                           
   RPACOR =    2.170    partial core radius                                     
   POMASS =  101.070; ZVAL   =   14.000    mass and valenz                      
   RCORE  =    2.500    outmost cutoff radius                                   
   RWIGS  =    2.650; RWIGS  =    1.402    wigner-seitz radius (au A)           
   ENMAX  =  240.049; ENMIN  =  180.037 eV                                      
   ICORE  =        3    local potential                                         
   LCOR   =        T    correct aug charges                                     
   LPAW   =        T    paw PP                                                  
   EAUG   =  430.792                                                            
   DEXC   =    0.000                                                            
   RMAX   =    2.546    core radius for proj-oper                               
   RAUG   =    1.300    factor for augmentation sphere                          
   RDEP   =    2.520    radius for radial grids                                 
   RDEPT  =    2.044    core radius for aug-charge                              
                                                                                
   Atomic configuration                                                         
   11 entries                                                                   
     n  l   j            E        occ.                                          
     1  0  0.50    -21933.2692   2.0000                                         
     2  0  0.50     -3153.4096   2.0000                                         
     2  1  1.50     -2823.9548   6.0000                                         
     3  0  0.50      -555.3322   2.0000                                         
     3  1  1.50      -447.1024   6.0000                                         
     3  2  2.50      -273.0570  10.0000                                         
     4  0  0.50       -76.3589   2.0000                                         
     4  1  1.50       -46.4050   6.0000                                         
     4  2  2.50        -5.2029   7.0000                                         
     5  0  0.50        -4.2392   1.0000                                         
     4  3  2.50        -1.3606   0.0000                                         
   Description                                                                  
     l       E           TYP  RCUT    TYP  RCUT                                 
     1    -46.4050190     23  2.100                                             
     1      4.0817478     23  2.100                                             
     2     -5.2028758     23  2.500                                             
     2     -6.5634584     23  2.500                                             
     0     -4.2392192     23  2.500                                             
     0      7.0918828     23  2.500                                             
     3     -5.4423304     23  2.500                                             
  local pseudopotential read in
  partial core-charges read in
  partial kinetic energy density read in
  atomic valenz-charges read in
  non local Contribution for L=           1  read in
    real space projection operators read in
  non local Contribution for L=           1  read in
    real space projection operators read in
  non local Contribution for L=           2  read in
    real space projection operators read in
  non local Contribution for L=           2  read in
    real space projection operators read in
  non local Contribution for L=           0  read in
    real space projection operators read in
  non local Contribution for L=           0  read in
    real space projection operators read in
    PAW grid and wavefunctions read in
 
   number of l-projection  operators is LMAX  =           6
   number of lm-projection operators is LMMAX =          18
 
 Optimization of the real space projectors (new method)

 maximal supplied QI-value         = 34.20
 optimisation between [QCUT,QGAM] = [ 13.34, 27.02] = [ 49.83,204.46] Ry 
 Optimized for a Real-space Cutoff    1.04 Angstroem

   l    n(q)    QCUT    max X(q) W(low)/X(q) W(high)/X(q)  e(spline) 
   0      8    13.340   134.812    0.72E-04    0.21E-03    0.27E-06
   0      8    13.340    80.524    0.70E-04    0.21E-03    0.27E-06
   1      8    13.340    79.026    0.21E-03    0.16E-03    0.33E-06
   1      8    13.340    45.188    0.20E-03    0.15E-03    0.33E-06
 Optimization of the real space projectors (new method)

 maximal supplied QI-value         = 34.20
 optimisation between [QCUT,QGAM] = [ 13.34, 27.02] = [ 49.83,204.46] Ry 
 Optimized for a Real-space Cutoff    1.04 Angstroem

   l    n(q)    QCUT    max X(q) W(low)/X(q) W(high)/X(q)  e(spline) 
   0      8    13.340   134.812    0.72E-04    0.21E-03    0.27E-06
   0      8    13.340    80.524    0.70E-04    0.21E-03    0.27E-06
   1      8    13.340    79.026    0.21E-03    0.16E-03    0.33E-06
   1      8    13.340    45.188    0.20E-03    0.15E-03    0.33E-06
 Optimization of the real space projectors (new method)

 maximal supplied QI-value         = 34.20
 optimisation between [QCUT,QGAM] = [ 13.34, 27.02] = [ 49.83,204.46] Ry 
 Optimized for a Real-space Cutoff    0.98 Angstroem

   l    n(q)    QCUT    max X(q) W(low)/X(q) W(high)/X(q)  e(spline) 
   0      8    13.340    19.460    0.18E-03    0.41E-04    0.19E-06
   0      8    13.340    12.209    0.17E-03    0.45E-04    0.18E-06
   1      7    13.340     4.655    0.16E-03    0.30E-03    0.14E-06
 Optimization of the real space projectors (new method)

 maximal supplied QI-value         = 34.20
 optimisation between [QCUT,QGAM] = [ 13.34, 27.02] = [ 49.83,204.46] Ry 
 Optimized for a Real-space Cutoff    1.04 Angstroem

   l    n(q)    QCUT    max X(q) W(low)/X(q) W(high)/X(q)  e(spline) 
   0      8    13.340   148.539    0.85E-04    0.19E-03    0.21E-06
   0      8    13.340   106.192    0.84E-04    0.19E-03    0.21E-06
   1      8    13.340    73.877    0.18E-03    0.11E-03    0.36E-06
   1      8    13.340    50.042    0.17E-03    0.11E-03    0.36E-06
 Optimization of the real space projectors (new method)

 maximal supplied QI-value         = 34.20
 optimisation between [QCUT,QGAM] = [ 13.34, 27.02] = [ 49.83,204.46] Ry 
 Optimized for a Real-space Cutoff    0.98 Angstroem

   l    n(q)    QCUT    max X(q) W(low)/X(q) W(high)/X(q)  e(spline) 
   0      8    13.340   280.207    0.16E-03    0.35E-03    0.14E-06
   0      8    13.340   228.978    0.16E-03    0.35E-03    0.14E-06
   1      7    13.340    86.127    0.23E-03    0.25E-04    0.30E-06
   1      7    13.340    65.368    0.22E-03    0.27E-04    0.30E-06
 Optimization of the real space projectors (new method)

 maximal supplied QI-value         = 15.12
 optimisation between [QCUT,QGAM] = [ 13.45, 27.06] = [ 50.69,205.06] Ry 
 Optimized for a Real-space Cutoff    1.40 Angstroem

   l    n(q)    QCUT    max X(q) W(low)/X(q) W(high)/X(q)  e(spline) 
   1     11    13.455     3.180    0.18E-04    0.25E-04    0.55E-07
   1     11    13.455     5.351    0.12E-03    0.15E-03    0.24E-06
   2     10    13.455    66.565    0.13E-03    0.46E-04    0.26E-06
   2     10    13.455    63.466    0.13E-03    0.47E-04    0.27E-06
   0     11    13.455    85.644    0.47E-04    0.16E-04    0.33E-06
   0     11    13.455    44.119    0.43E-04    0.15E-04    0.30E-06
  PAW_PBE C_h 06Feb2004                 :
 energy of atom  1       EATOM= -147.1560
 kinetic energy error for atom=    0.0286 (will be added to EATOM!!)
  PAW_PBE C_h 06Feb2004                 :
 energy of atom  2       EATOM= -147.1560
 kinetic energy error for atom=    0.0286 (will be added to EATOM!!)
  PAW_PBE H 15Jun2001                   :
 energy of atom  3       EATOM=  -12.4884
 kinetic energy error for atom=    0.0002 (will be added to EATOM!!)
  PAW_PBE N_h 06Feb2004                 :
 energy of atom  4       EATOM= -264.5486
 kinetic energy error for atom=    0.0847 (will be added to EATOM!!)
  PAW_PBE O_h 06Feb2004                 :
 energy of atom  5       EATOM= -432.3788
 kinetic energy error for atom=    0.1855 (will be added to EATOM!!)
  PAW_PBE Ru_pv 28Jan2005               :
 energy of atom  6       EATOM=-1873.4746
 kinetic energy error for atom=    0.0017 (will be added to EATOM!!)
 
 
 POSCAR: C C H N O Ru                            
  positions in direct lattice
  velocities in cartesian coordinates
 exchange correlation table for  LEXCH =        8
   RHO(1)=    0.500       N(1)  =     2000
   RHO(2)=  100.500       N(2)  =     4000
 


--------------------------------------------------------------------------------------------------------


 ion  position               nearest neighbor table
   1  0.602  0.419  0.606-  51 1.37  10 1.40  14 1.47
   2  0.438  0.566  0.328-  43 1.09   3 1.39   6 1.39
   3  0.456  0.524  0.381-  38 1.09  49 1.36   2 1.39
   4  0.474  0.615  0.450-  34 1.09  49 1.36   5 1.39
   5  0.456  0.660  0.399-  33 1.09   4 1.39   6 1.40
   6  0.438  0.635  0.337-  32 1.09   2 1.39   5 1.40
   7  0.523  0.330  0.675-  26 1.09   8 1.39  16 1.40
   8  0.497  0.372  0.626-  31 1.09  51 1.36   7 1.39
   9  0.293  0.477  0.568-  45 1.09  25 1.39  17 1.40
  10  0.631  0.378  0.654-  28 1.09  16 1.39   1 1.40
  11  0.740  0.529  0.535-  41 1.09  15 1.39  12 1.40
  12  0.701  0.566  0.490-  37 1.09  13 1.39  11 1.40
  13  0.633  0.554  0.487-  47 1.09  53 1.36  12 1.39
  14  0.640  0.469  0.567-  53 1.37  15 1.40   1 1.47
  15  0.708  0.480  0.573-  36 1.09  11 1.39  14 1.40
  16  0.591  0.332  0.689-  27 1.09  10 1.39   7 1.40
  17  0.362  0.489  0.564-  50 1.37   9 1.40  21 1.46
  18  0.408  0.622  0.691-  48 1.09  22 1.39  19 1.40
  19  0.476  0.626  0.677-  44 1.09  20 1.39  18 1.40
  20  0.503  0.586  0.627-  42 1.09  52 1.36  19 1.39
  21  0.398  0.538  0.604-  52 1.38  22 1.40  17 1.46
  22  0.369  0.578  0.654-  30 1.09  18 1.39  21 1.40
  23  0.373  0.406  0.482-  39 1.09  50 1.35  24 1.39
  24  0.305  0.392  0.484-  40 1.09  23 1.39  25 1.40
  25  0.264  0.428  0.528-  46 1.09   9 1.39  24 1.40
  26  0.490  0.295  0.701-   7 1.09
  27  0.613  0.300  0.727-  16 1.09
  28  0.684  0.381  0.665-  10 1.09
  29  0.542  0.362  0.461-  54 0.97
  30  0.316  0.573  0.664-  22 1.09
  31  0.444  0.371  0.614-   8 1.09
  32  0.424  0.668  0.296-   6 1.09
  33  0.456  0.713  0.410-   5 1.09
  34  0.488  0.634  0.499-   4 1.09
  35  0.569  0.418  0.415-  54 0.98
  36  0.738  0.450  0.608-  15 1.09
  37  0.723  0.605  0.459-  12 1.09
  38  0.456  0.470  0.375-   3 1.09
  39  0.406  0.379  0.449-  23 1.09
  40  0.284  0.353  0.452-  24 1.09
  41  0.793  0.537  0.539-  11 1.09
  42  0.556  0.588  0.614-  20 1.09
  43  0.424  0.543  0.280-   2 1.09
  44  0.509  0.660  0.704-  19 1.09
  45  0.263  0.506  0.603-   9 1.09
  46  0.211  0.418  0.531-  25 1.09
  47  0.601  0.582  0.453-  13 1.09
  48  0.385  0.653  0.729-  18 1.09
  49  0.474  0.548  0.441-   4 1.36   3 1.36  55 2.12
  50  0.402  0.453  0.521-  23 1.35  17 1.37  55 2.06
  51  0.535  0.416  0.592-   8 1.36   1 1.37  55 2.06
  52  0.465  0.543  0.590-  20 1.36  21 1.38  55 2.01
  53  0.601  0.507  0.524-  13 1.36  14 1.37  55 2.08
  54  0.531  0.406  0.442-  29 0.97  35 0.98  55 2.24
  55  0.501  0.481  0.519-  52 2.01  50 2.06  51 2.06  53 2.08  49 2.12  54 2.24
 
  LATTYP: Found a simple cubic cell.
 ALAT       =    20.0000000000
  
  Lattice vectors:
  
 A1 = (  20.0000000000,   0.0000000000,   0.0000000000)
 A2 = (   0.0000000000,  20.0000000000,   0.0000000000)
 A3 = (   0.0000000000,   0.0000000000,  20.0000000000)


Analysis of symmetry for initial positions (statically):
=====================================================================
 Subroutine PRICEL returns:
 Original cell was already a primitive cell.
 

 Routine SETGRP: Setting up the symmetry group for a 
 simple cubic supercell.


 Subroutine GETGRP returns: Found  1 space group operations
 (whereof  1 operations were pure point group operations)
 out of a pool of 48 trial point group operations.


The static configuration has the point symmetry C_1 .


Analysis of symmetry for dynamics (positions and initial velocities):
=====================================================================
 Subroutine PRICEL returns:
 Original cell was already a primitive cell.
 

 Routine SETGRP: Setting up the symmetry group for a 
 simple cubic supercell.


 Subroutine GETGRP returns: Found  1 space group operations
 (whereof  1 operations were pure point group operations)
 out of a pool of 48 trial point group operations.


The dynamic configuration has the point symmetry C_1 .


Analysis of constrained symmetry for selective dynamics:
=====================================================================
 Subroutine PRICEL returns:
 Original cell was already a primitive cell.
 

 Routine SETGRP: Setting up the symmetry group for a 
 simple cubic supercell.


 Subroutine GETGRP returns: Found  1 space group operations
 (whereof  1 operations were pure point group operations)
 out of a pool of 48 trial point group operations.


The constrained configuration has the point symmetry C_1 .


Analysis of magnetic symmetry:
=====================================================================
 Subroutine PRICEL returns:
 Original cell was already a primitive cell.
 

 Subroutine MAGSYM returns: Found  1 space group operations
 (whereof  1 operations were pure point group operations)
 out of a pool of  1 trial space group operations
 (whereof  1 operations were pure point group operations)
 and found also     1 'primitive' translations


The magnetic configuration has the point symmetry C_1 .
 
 
 KPOINTS: K-Points                                

Automatic generation of k-mesh.
Space group operators:
 irot       det(A)        alpha          n_x          n_y          n_z        tau_x        tau_y        tau_z
    1     1.000000     0.000000     1.000000     0.000000     0.000000     0.000000     0.000000     0.000000
 
 Subroutine IBZKPT returns following result:
 ===========================================
 
 Found      1 irreducible k-points:
 
 Following reciprocal coordinates:
            Coordinates               Weight
  0.000000  0.000000  0.000000      1.000000
 
 Following cartesian coordinates:
            Coordinates               Weight
  0.000000  0.000000  0.000000      1.000000
 


--------------------------------------------------------------------------------------------------------




 Dimension of arrays:
   k-points           NKPTS =      1   k-points in BZ     NKDIM =      1   number of bands    NBANDS=    128
   number of dos      NEDOS =    301   number of ions     NIONS =     55
   non local maximal  LDIM  =      6   non local SUM 2l+1 LMDIM =     18
   total plane-waves  NPLWV = ******
   max r-space proj   IRMAX =   8473   max aug-charges    IRDMAX= 268848
   dimension x,y,z NGX =   180 NGY =  180 NGZ =  180
   dimension x,y,z NGXF=   360 NGYF=  360 NGZF=  360
   support grid    NGXF=   720 NGYF=  720 NGZF=  720
   ions per type =               1  24  23   5   1   1
 NGX,Y,Z   is equivalent  to a cutoff of  14.96, 14.96, 14.96 a.u.
 NGXF,Y,Z  is equivalent  to a cutoff of  29.92, 29.92, 29.92 a.u.


 I would recommend the setting:
   dimension x,y,z NGX =   173 NGY =  173 NGZ =  173
 SYSTEM =  c2_oh2_ruthenium_mol                    
 POSCAR =  C C H N O Ru                            

 Startparameter for this run:
   NWRITE =      2    write-flag & timer
   PREC   = accura    normal or accurate (medium, high low for compatibility)
   ISTART =      0    job   : 0-new  1-cont  2-samecut
   ICHARG =      2    charge: 1-file 2-atom 10-const
   ISPIN  =      2    spin polarized calculation?
   LNONCOLLINEAR =      F non collinear calculations
   LSORBIT =      F    spin-orbit coupling
   INIWAV =      1    electr: 0-lowe 1-rand  2-diag
   LASPH  =      F    aspherical Exc in radial PAW
   METAGGA=      F    non-selfconsistent MetaGGA calc.

 Electronic Relaxation 1
   ENCUT  =  700.0 eV  51.45 Ry    7.17 a.u.  43.15 43.15 43.15*2*pi/ulx,y,z
   ENINI  =  700.0     initial cutoff
   ENAUG  =  946.8 eV  augmentation charge cutoff
   NELM   =     60;   NELMIN=  2; NELMDL= -5     # of ELM steps 
   EDIFF  = 0.1E-04   stopping-criterion for ELM
   LREAL  =      T    real-space projection
   NLSPLINE    = F    spline interpolate recip. space projectors
   LCOMPAT=      F    compatible to vasp.4.4
   GGA_COMPAT  = T    GGA compatible to vasp.4.4-vasp.4.6
   LMAXPAW     = -100 max onsite density
   LMAXMIX     =    2 max onsite mixed and CHGCAR
   VOSKOWN=      0    Vosko Wilk Nusair interpolation
   ROPT   =   -0.00025  -0.00025  -0.00025  -0.00025
   ROPT   =   -0.00025  -0.00025
 Ionic relaxation
   EDIFFG = -.1E-01   stopping-criterion for IOM
   NSW    =      0    number of steps for IOM
   NBLOCK =      1;   KBLOCK =      1    inner block; outer block 
   IBRION =     -1    ionic relax: 0-MD 1-quasi-New 2-CG
   NFREE  =      0    steps in history (QN), initial steepest desc. (CG)
   ISIF   =      2    stress and relaxation
   IWAVPR =     10    prediction:  0-non 1-charg 2-wave 3-comb
   ISYM   =      2    0-nonsym 1-usesym 2-fastsym
   LCORR  =      T    Harris-Foulkes like correction to forces

   POTIM  = 0.5000    time-step for ionic-motion
   TEIN   =    0.0    initial temperature
   TEBEG  =    0.0;   TEEND  =   0.0 temperature during run
   SMASS  =  -3.00    Nose mass-parameter (am)
   estimated Nose-frequenzy (Omega)   =  0.10E-29 period in steps =****** mass=  -0.914E-26a.u.
   SCALEE = 1.0000    scale energy and forces
   NPACO  =    256;   APACO  = 16.0  distance and # of slots for P.C.
   PSTRESS=    0.0 pullay stress

  Mass of Ions in am
   POMASS =  12.01 12.01  1.00 14.00 16.00101.07
  Ionic Valenz
   ZVAL   =   4.50  4.00  1.00  5.00  6.00 14.00
  Atomic Wigner-Seitz radii
   RWIGS  =  -1.00 -1.00 -1.00 -1.00 -1.00 -1.00
  virtual crystal weights 
   VCA    =   1.00  1.00  1.00  1.00  1.00  1.00
   NELECT =     166.0000    total number of electrons
   NUPDOWN=       0.0000    fix difference up-down

 DOS related values:
   EMIN   =  10.00;   EMAX   =-10.00  energy-range for DOS
   EFERMI =   0.00
   ISMEAR =     0;   SIGMA  =   0.01  broadening in eV -4-tet -1-fermi 0-gaus

 Electronic relaxation 2 (details)
   IALGO  =     38    algorithm
   LDIAG  =      T    sub-space diagonalisation (order eigenvalues)
   LSUBROT=      F    optimize rotation matrix (better conditioning)
   TURBO    =      0    0=normal 1=particle mesh
   IRESTART =      0    0=no restart 2=restart with 2 vectors
   NREBOOT  =      0    no. of reboots
   NMIN     =      0    reboot dimension
   EREF     =   0.00    reference energy to select bands
   IMIX   =      4    mixing-type and parameters
     AMIX     =   0.40;   BMIX     =  2.00
     AMIX_MAG =   1.60;   BMIX_MAG =  2.00
     AMIN     =   0.10
     WC   =   100.;   INIMIX=   1;  MIXPRE=   1;  MAXMIX= -45

 Intra band minimization:
   WEIMIN = 0.0000     energy-eigenvalue tresh-hold
   EBREAK =  0.20E-07  absolut break condition
   DEPER  =   0.30     relativ break condition  

   TIME   =   0.05     timestep for ELM

  volume/ion in A,a.u.               =     145.45       981.58
  Fermi-wavevector in a.u.,A,eV,Ry     =   0.449864  0.850119  2.753510  0.202377
  Thomas-Fermi vector in A             =   1.430192
 
 Write flags
   LWAVE  =      T    write WAVECAR
   LCHARG =      T    write CHGCAR
   LVTOT  =      F    write LOCPOT, total local potential
   LVHAR  =      F    write LOCPOT, Hartree potential only
   LELF   =      F    write electronic localiz. function (ELF)
   LORBIT =      0    0 simple, 1 ext, 2 COOP (PROOUT)


 Dipole corrections
   LMONO  =      F    monopole corrections only (constant potential shift)
   LDIPOL =      F    correct potential (dipole corrections)
   IDIPOL =      0    1-x, 2-y, 3-z, 4-all directions 
   EPSILON=  1.0000000 bulk dielectric constant

 Core level calculations are selected ICORELEVEL =  2
  CLNT =           1       CLN =     1
  CLL  =           0       CLZ = 0.500
 Exchange correlation treatment:
   GGA     =    --    GGA type
   LEXCH   =     8    internal setting for exchange type
   VOSKOWN=      0    Vosko Wilk Nusair interpolation
   LHFCALC =     F    Hartree Fock is set to
   LHFONE  =     F    Hartree Fock one center treatment
   AEXX    =    0.0000 exact exchange contribution

 Linear response parameters
   LEPSILON=     F    determine dielectric tensor
   LRPA    =     F    only Hartree local field effects (RPA)
   LNABLA  =     F    use nabla operator in PAW spheres
   LVEL    =     F    velocity operator in full k-point grid
   LINTERFAST=   F  fast interpolation
   KINTER  =     0    interpolate to denser k-point grid
   CSHIFT  =0.1000    complex shift for real part using Kramers Kronig
   OMEGAMAX=  -1.0    maximum frequency
   DEG_THRESHOLD= 0.2000000E-02 threshold for treating states as degnerate
   RTIME   =    0.100 relaxation time in fs

 Orbital magnetization related:
   ORBITALMAG=     F  switch on orbital magnetization
   LCHIMAG   =     F  perturbation theory with respect to B field
   DQ        =  0.001000  dq finite difference perturbation B field



--------------------------------------------------------------------------------------------------------


 Static calculation
 charge density and potential will be updated during run
 spin polarized calculation
 Variant of blocked Davidson
 Davidson routine will perform the subspace rotation
 perform sub-space diagonalisation
    after iterative eigenvector-optimisation
 modified Broyden-mixing scheme, WC =      100.0
 initial mixing is a Kerker type mixing with AMIX =  0.4000 and BMIX =      2.0000
 Hartree-type preconditioning will be used
 using additional bands           45
 real space projection scheme for non local part
 use partial core corrections
 calculate Harris-corrections to forces 
   (improved forces if not selfconsistent)
 use gradient corrections 
 use of overlap-Matrix (Vanderbilt PP)
 Gauss-broadening in eV      SIGMA  =   0.01


--------------------------------------------------------------------------------------------------------


  energy-cutoff  :      700.00
  volume of cell :     8000.00
      direct lattice vectors                 reciprocal lattice vectors
    20.000000000  0.000000000  0.000000000     0.050000000  0.000000000  0.000000000
     0.000000000 20.000000000  0.000000000     0.000000000  0.050000000  0.000000000
     0.000000000  0.000000000 20.000000000     0.000000000  0.000000000  0.050000000

  length of vectors
    20.000000000 20.000000000 20.000000000     0.050000000  0.050000000  0.050000000


 
 k-points in units of 2pi/SCALE and weight: K-Points                                
   0.00000000  0.00000000  0.00000000       1.000
 
 k-points in reciprocal lattice and weights: K-Points                                
   0.00000000  0.00000000  0.00000000       1.000
 
 position of ions in fractional coordinates (direct lattice) 
   0.60227374  0.41933300  0.60593616
   0.43793752  0.56561110  0.32757008
   0.45581208  0.52423376  0.38051465
   0.47372925  0.61530131  0.44986522
   0.45595175  0.65963312  0.39935201
   0.43785737  0.63472201  0.33675972
   0.52307882  0.32955005  0.67474498
   0.49710163  0.37190466  0.62618823
   0.29334713  0.47671938  0.56830116
   0.63096398  0.37761922  0.65422416
   0.73964927  0.52855915  0.53463181
   0.70082162  0.56612858  0.49044049
   0.63257913  0.55363620  0.48652424
   0.63952130  0.46927713  0.56732841
   0.70843899  0.47974495  0.57314689
   0.59134754  0.33224398  0.68903016
   0.36211554  0.48866484  0.56417415
   0.40790931  0.62211625  0.69058213
   0.47619960  0.62606623  0.67660612
   0.50295190  0.58590820  0.62668073
   0.39825425  0.53800137  0.60426081
   0.36904589  0.57756069  0.65398228
   0.37289802  0.40579857  0.48223443
   0.30486503  0.39173492  0.48443166
   0.26422003  0.42785518  0.52821594
   0.48989745  0.29510618  0.70074864
   0.61334240  0.29968355  0.72673159
   0.68424189  0.38076917  0.66478776
   0.54225374  0.36233861  0.46129841
   0.31579090  0.57306911  0.66420366
   0.44416348  0.37118871  0.61364770
   0.42392665  0.66833230  0.29622671
   0.45642762  0.71313270  0.40950260
   0.48809132  0.63358802  0.49907234
   0.56912778  0.41808713  0.41480476
   0.73767440  0.44963919  0.60776512
   0.72277620  0.60481012  0.45904817
   0.45570253  0.47012894  0.37468790
   0.40614333  0.37888556  0.44852541
   0.28443799  0.35306162  0.45202062
   0.79326502  0.53703787  0.53892527
   0.55589708  0.58769132  0.61440612
   0.42412006  0.54328620  0.27986105
   0.50894741  0.65984570  0.70400156
   0.26265982  0.50568523  0.60265428
   0.21072272  0.41813760  0.53105039
   0.60090654  0.58197914  0.45254259
   0.38544357  0.65296704  0.72941133
   0.47424490  0.54794204  0.44140236
   0.40180479  0.45306079  0.52108436
   0.53520702  0.41608490  0.59173240
   0.46544808  0.54254992  0.59041194
   0.60138410  0.50650621  0.52397638
   0.53073984  0.40562607  0.44215451
   0.50088568  0.48087016  0.51934246
 
 position of ions in cartesian coordinates  (Angst):
  12.04547477  8.38665999 12.11872314
   8.75875044 11.31222209  6.55140167
   9.11624161 10.48467523  7.61029296
   9.47458509 12.30602619  8.99730442
   9.11903505 13.19266234  7.98704025
   8.75714739 12.69444028  6.73519441
  10.46157638  6.59100110 13.49489953
   9.94203263  7.43809325 12.52376455
   5.86694270  9.53438759 11.36602327
  12.61927957  7.55238445 13.08448329
  14.79298537 10.57118301 10.69263621
  14.01643234 11.32257164  9.80880974
  12.65158254 11.07272405  9.73048485
  12.79042597  9.38554253 11.34656829
  14.16877978  9.59489901 11.46293786
  11.82695089  6.64487969 13.78060313
   7.24231077  9.77329687 11.28348299
   8.15818611 12.44232505 13.81164268
   9.52399198 12.52132464 13.53212240
  10.05903801 11.71816400 12.53361469
   7.96508499 10.76002740 12.08521614
   7.38091777 11.55121387 13.07964553
   7.45796037  8.11597149  9.64468853
   6.09730063  7.83469839  9.68863321
   5.28440067  8.55710369 10.56431882
   9.79794892  5.90212351 14.01497288
  12.26684793  5.99367109 14.53463185
  13.68483783  7.61538334 13.29575520
  10.84507475  7.24677213  9.22596819
   6.31581791 11.46138226 13.28407311
   8.88326966  7.42377422 12.27295397
   8.47853309 13.36664601  5.92453423
   9.12855243 14.26265408  8.19005201
   9.76182647 12.67176037  9.98144677
  11.38255564  8.36174255  8.29609511
  14.75348806  8.99278384 12.15530242
  14.45552391 12.09620238  9.18096343
   9.11405064  9.40257887  7.49375804
   8.12286663  7.57771114  8.97050829
   5.68875982  7.06123239  9.04041232
  15.86530045 10.74075733 10.77850539
  11.11794158 11.75382641 12.28812234
   8.48240128 10.86572407  5.59722093
  10.17894811 13.19691406 14.08003122
   5.25319634 10.11370460 12.05308551
   4.21445446  8.36275200 10.62100772
  12.01813087 11.63958272  9.05085175
   7.70887141 13.05934086 14.58822659
   9.48489793 10.95884088  8.82804729
   8.03609572  9.06121573 10.42168714
  10.70414049  8.32169803 11.83464804
   9.30896151 10.85099836 11.80823871
  12.02768196 10.13012430 10.47952760
  10.61479684  8.11252146  8.84309019
  10.01771355  9.61740316 10.38684921
 


--------------------------------------------------------------------------------------------------------


 k-point  1 :   0.0000 0.0000 0.0000  plane waves:  336427

 maximum and minimum number of plane-waves per node :    336427   336427

 maximum number of plane-waves:    336427
 maximum index in each direction: 
   IXMAX=   43   IYMAX=   43   IZMAX=   43
   IXMIN=  -43   IYMIN=  -43   IZMIN=  -43

 NGX is ok and might be reduce to 174
 NGY is ok and might be reduce to 174
 NGZ is ok and might be reduce to 174

 serial   3D FFT for wavefunctions
 parallel 3D FFT for charge:
    minimum data exchange during FFTs selected (reduces bandwidth)


 total amount of memory used by VASP on root node   877132. kBytes
========================================================================

   base      :      30000. kBytes
   nonlr-proj:      19361. kBytes
   fftplans  :     269516. kBytes
   grid      :     534988. kBytes
   one-center:       1710. kBytes
   wavefun   :      21557. kBytes
 
     INWAV:  cpu time    0.00: real time    0.00
 Broyden mixing: mesh for mixing (old mesh)
   NGX = 87   NGY = 87   NGZ = 87
  (NGX  =360   NGY  =360   NGZ  =360)
  gives a total of 658503 points

 initial charge density was supplied:
 charge density of overlapping atoms calculated
 number of electron     168.5000000 magnetization       0.0000000
 keeping initial charge density in first step


--------------------------------------------------------------------------------------------------------


 Maximum index for non-local projection operator         8166
 Maximum index for augmentation-charges         3214 (set IRDMAX)


--------------------------------------------------------------------------------------------------------


 First call to EWALD:  gamma=   0.089
 Maximum number of real-space cells 3x 3x 3
 Maximum number of reciprocal cells 3x 3x 3

 FEWALD executed in parallel
    FEWALD:  cpu time    0.00: real time    0.00


----------------------------------------- Iteration    1(   1)  ---------------------------------------


    POTLOK:  cpu time    4.71: real time    4.74
    SETDIJ:  cpu time    2.85: real time    2.86
     EDDAV:  cpu time   14.78: real time   15.72
       DOS:  cpu time    0.02: real time    0.03
    --------------------------------------------
      LOOP:  cpu time   22.38: real time   23.35

 eigenvalue-minimisations  :   768
 total energy-change (2. order) : 0.9109664E+03  (-0.5880066E+04)
 number of electron     168.5000000 magnetization       0.0000000
 augmentation part      168.5000000 magnetization       0.0000000

 Free energy of the ion-electron system (eV)
  ---------------------------------------------------
  alpha Z        PSCENC =        12.91687988
  Ewald energy   TEWEN  =     23333.98470079
  -Hartree energ DENC   =    -28935.69449433
  -exchange      EXHF   =         0.00000000
  -V(xc)+E(xc)   XCENC  =       401.01519941
  PAW double counting   =      5890.45591622    -5710.10246236
  entropy T*S    EENTRO =        -0.00047510
  eigenvalues    EBANDS =     -1675.00880546
  atomic energy  EATOM  =      7593.39991119
  ---------------------------------------------------
  free energy    TOTEN  =       910.96637023 eV

  energy without entropy =      910.96684534  energy(sigma->0) =      910.96660778


--------------------------------------------------------------------------------------------------------




----------------------------------------- Iteration    1(   2)  ---------------------------------------


     EDDAV:  cpu time   19.16: real time   20.24
       DOS:  cpu time    0.01: real time    0.01
    --------------------------------------------
      LOOP:  cpu time   19.17: real time   20.26

 eigenvalue-minimisations  :  1024
 total energy-change (2. order) :-0.9803920E+03  (-0.9741684E+03)
 number of electron     168.5000000 magnetization       0.0000000
 augmentation part      168.5000000 magnetization       0.0000000

 Free energy of the ion-electron system (eV)
  ---------------------------------------------------
  alpha Z        PSCENC =        12.91687988
  Ewald energy   TEWEN  =     23333.98470079
  -Hartree energ DENC   =    -28935.69449433
  -exchange      EXHF   =         0.00000000
  -V(xc)+E(xc)   XCENC  =       401.01519941
  PAW double counting   =      5890.45591622    -5710.10246236
  entropy T*S    EENTRO =        -0.00000000
  eigenvalues    EBANDS =     -2655.40124279
  atomic energy  EATOM  =      7593.39991119
  ---------------------------------------------------
  free energy    TOTEN  =       -69.42559200 eV

  energy without entropy =      -69.42559200  energy(sigma->0) =      -69.42559200


--------------------------------------------------------------------------------------------------------




----------------------------------------- Iteration    1(   3)  ---------------------------------------


     EDDAV:  cpu time   15.97: real time   16.91
       DOS:  cpu time    0.01: real time    0.01
    --------------------------------------------
      LOOP:  cpu time   15.99: real time   16.92

 eigenvalue-minimisations  :   832
 total energy-change (2. order) :-0.3224912E+03  (-0.3220886E+03)
 number of electron     168.5000000 magnetization       0.0000000
 augmentation part      168.5000000 magnetization       0.0000000

 Free energy of the ion-electron system (eV)
  ---------------------------------------------------
  alpha Z        PSCENC =        12.91687988
  Ewald energy   TEWEN  =     23333.98470079
  -Hartree energ DENC   =    -28935.69449433
  -exchange      EXHF   =         0.00000000
  -V(xc)+E(xc)   XCENC  =       401.01519941
  PAW double counting   =      5890.45591622    -5710.10246236
  entropy T*S    EENTRO =        -0.00000000
  eigenvalues    EBANDS =     -2977.89239676
  atomic energy  EATOM  =      7593.39991119
  ---------------------------------------------------
  free energy    TOTEN  =      -391.91674596 eV

  energy without entropy =     -391.91674596  energy(sigma->0) =     -391.91674596


--------------------------------------------------------------------------------------------------------




----------------------------------------- Iteration    1(   4)  ---------------------------------------


     EDDAV:  cpu time   12.72: real time   13.41
       DOS:  cpu time    0.01: real time    0.01
    --------------------------------------------
      LOOP:  cpu time   12.73: real time   13.42

 eigenvalue-minimisations  :   640
 total energy-change (2. order) :-0.1843847E+02  (-0.1841723E+02)
 number of electron     168.5000000 magnetization       0.0000000
 augmentation part      168.5000000 magnetization       0.0000000

 Free energy of the ion-electron system (eV)
  ---------------------------------------------------
  alpha Z        PSCENC =        12.91687988
  Ewald energy   TEWEN  =     23333.98470079
  -Hartree energ DENC   =    -28935.69449433
  -exchange      EXHF   =         0.00000000
  -V(xc)+E(xc)   XCENC  =       401.01519941
  PAW double counting   =      5890.45591622    -5710.10246236
  entropy T*S    EENTRO =        -0.00000000
  eigenvalues    EBANDS =     -2996.33086248
  atomic energy  EATOM  =      7593.39991119
  ---------------------------------------------------
  free energy    TOTEN  =      -410.35521168 eV

  energy without entropy =     -410.35521168  energy(sigma->0) =     -410.35521168


--------------------------------------------------------------------------------------------------------




----------------------------------------- Iteration    1(   5)  ---------------------------------------


     EDDAV:  cpu time   17.06: real time   18.04
       DOS:  cpu time    0.02: real time    0.02
    CHARGE:  cpu time    5.17: real time    5.18
    MIXING:  cpu time    0.11: real time    0.11
    --------------------------------------------
      LOOP:  cpu time   22.36: real time   23.36

 eigenvalue-minimisations  :   896
 total energy-change (2. order) :-0.2668968E+00  (-0.2668023E+00)
 number of electron     166.0000000 magnetization       0.0000000
 augmentation part        3.7057725 magnetization      -0.0000333

 Broyden mixing:
  rms(total) = 0.56405E+01    rms(broyden)= 0.56399E+01
  rms(prec ) = 0.59788E+01
  weight for this iteration     100.00

 Free energy of the ion-electron system (eV)
  ---------------------------------------------------
  alpha Z        PSCENC =        12.91687988
  Ewald energy   TEWEN  =     23333.98470079
  -Hartree energ DENC   =    -28935.69449433
  -exchange      EXHF   =         0.00000000
  -V(xc)+E(xc)   XCENC  =       401.01519941
  PAW double counting   =      5890.45591622    -5710.10246236
  entropy T*S    EENTRO =        -0.00000000
  eigenvalues    EBANDS =     -2996.59775925
  atomic energy  EATOM  =      7593.39991119
  ---------------------------------------------------
  free energy    TOTEN  =      -410.62210845 eV

  energy without entropy =     -410.62210845  energy(sigma->0) =     -410.62210845


--------------------------------------------------------------------------------------------------------




----------------------------------------- Iteration    1(   6)  ---------------------------------------


    POTLOK:  cpu time    4.59: real time    4.61
    SETDIJ:  cpu time    2.79: real time    2.80
     EDDAV:  cpu time   10.75: real time   11.45
       DOS:  cpu time    0.01: real time    0.01
    CHARGE:  cpu time    5.25: real time    5.27
    MIXING:  cpu time    0.12: real time    0.12
    --------------------------------------------
      LOOP:  cpu time   23.51: real time   24.26

 eigenvalue-minimisations  :   512
 total energy-change (2. order) : 0.1911761E+02  (-0.2890377E+02)
 number of electron     166.0000000 magnetization       0.0000000
 augmentation part        6.3580320 magnetization       0.0001024

 Broyden mixing:
  rms(total) = 0.37441E+01    rms(broyden)= 0.37439E+01
  rms(prec ) = 0.38957E+01
  weight for this iteration     100.00

 eigenvalues of (default mixing * dielectric matrix)
  average eigenvalue GAMMA=   1.1359
  1.1359

 Free energy of the ion-electron system (eV)
  ---------------------------------------------------
  alpha Z        PSCENC =        12.91687988
  Ewald energy   TEWEN  =     23333.98470079
  -Hartree energ DENC   =    -28950.04706977
  -exchange      EXHF   =         0.00000000
  -V(xc)+E(xc)   XCENC  =       406.56468017
  PAW double counting   =     20890.45745817   -20722.28717927
  entropy T*S    EENTRO =        -0.00000000
  eigenvalues    EBANDS =     -2956.49388116
  atomic energy  EATOM  =      7593.39991119
  ---------------------------------------------------
  free energy    TOTEN  =      -391.50449999 eV

  energy without entropy =     -391.50449999  energy(sigma->0) =     -391.50449999


--------------------------------------------------------------------------------------------------------




----------------------------------------- Iteration    1(   7)  ---------------------------------------


    POTLOK:  cpu time    4.57: real time    4.60
    SETDIJ:  cpu time    2.80: real time    2.82
     EDDAV:  cpu time   15.16: real time   16.47
       DOS:  cpu time    0.05: real time    0.05
    CHARGE:  cpu time    5.21: real time    5.24
    MIXING:  cpu time    0.07: real time    0.07
    --------------------------------------------
      LOOP:  cpu time   27.86: real time   29.26

 eigenvalue-minimisations  :   768
 total energy-change (2. order) : 0.9641711E+01  (-0.2202941E+01)
 number of electron     166.0000000 magnetization       0.0000000
 augmentation part        5.4743702 magnetization      -0.0000312

 Broyden mixing:
  rms(total) = 0.22843E+01    rms(broyden)= 0.22843E+01
  rms(prec ) = 0.23475E+01
  weight for this iteration     100.00

 eigenvalues of (default mixing * dielectric matrix)
  average eigenvalue GAMMA=   1.5410
  0.7653  2.3167

 Free energy of the ion-electron system (eV)
  ---------------------------------------------------
  alpha Z        PSCENC =        12.91687988
  Ewald energy   TEWEN  =     23333.98470079
  -Hartree energ DENC   =    -29080.68268478
  -exchange      EXHF   =         0.00000000
  -V(xc)+E(xc)   XCENC  =       412.20636151
  PAW double counting   =     37501.16825815   -37328.44136160
  entropy T*S    EENTRO =        -0.00000000
  eigenvalues    EBANDS =     -2826.41485396
  atomic energy  EATOM  =      7593.39991119
  ---------------------------------------------------
  free energy    TOTEN  =      -381.86278881 eV

  energy without entropy =     -381.86278881  energy(sigma->0) =     -381.86278881


--------------------------------------------------------------------------------------------------------




----------------------------------------- Iteration    1(   8)  ---------------------------------------


    POTLOK:  cpu time    4.57: real time    4.60
    SETDIJ:  cpu time    2.83: real time    2.85
     EDDAV:  cpu time   15.13: real time   16.44
       DOS:  cpu time    0.05: real time    0.05
    CHARGE:  cpu time    5.09: real time    5.11
    MIXING:  cpu time    0.16: real time    0.16
    --------------------------------------------
      LOOP:  cpu time   27.82: real time   29.19

 eigenvalue-minimisations  :   768
 total energy-change (2. order) : 0.3829091E+01  (-0.1606460E+01)
 number of electron     166.0000000 magnetization       0.0000000
 augmentation part        4.7988745 magnetization       0.0000358

 Broyden mixing:
  rms(total) = 0.87603E+00    rms(broyden)= 0.87599E+00
  rms(prec ) = 0.97652E+00
  weight for this iteration     100.00

 eigenvalues of (default mixing * dielectric matrix)
  average eigenvalue GAMMA=   1.4723
  2.7123  0.8523  0.8523

 Free energy of the ion-electron system (eV)
  ---------------------------------------------------
  alpha Z        PSCENC =        12.91687988
  Ewald energy   TEWEN  =     23333.98470079
  -Hartree energ DENC   =    -29233.95357290
  -exchange      EXHF   =         0.00000000
  -V(xc)+E(xc)   XCENC  =       420.66505132
  PAW double counting   =     73849.92450179   -73674.56160902
  entropy T*S    EENTRO =        -0.00000000
  eigenvalues    EBANDS =     -2680.40956127
  atomic energy  EATOM  =      7593.39991119
  ---------------------------------------------------
  free energy    TOTEN  =      -378.03369820 eV

  energy without entropy =     -378.03369820  energy(sigma->0) =     -378.03369820


--------------------------------------------------------------------------------------------------------




----------------------------------------- Iteration    1(   9)  ---------------------------------------


    POTLOK:  cpu time    4.59: real time    4.61
    SETDIJ:  cpu time    2.81: real time    2.81
     EDDAV:  cpu time   15.05: real time   16.34
       DOS:  cpu time    0.05: real time    0.05
    CHARGE:  cpu time    5.03: real time    5.16
    MIXING:  cpu time    0.19: real time    0.19
    --------------------------------------------
      LOOP:  cpu time   27.72: real time   29.16

 eigenvalue-minimisations  :   768
 total energy-change (2. order) : 0.9685616E+00  (-0.7945558E+00)
 number of electron     166.0000000 magnetization       0.0000000
 augmentation part        5.3109193 magnetization      -0.0000019

 Broyden mixing:
  rms(total) = 0.33832E+00    rms(broyden)= 0.33828E+00
  rms(prec ) = 0.38006E+00
  weight for this iteration     100.00

 eigenvalues of (default mixing * dielectric matrix)
  average eigenvalue GAMMA=   1.3281
  2.5035  1.2871  0.7610  0.7610

 Free energy of the ion-electron system (eV)
  ---------------------------------------------------
  alpha Z        PSCENC =        12.91687988
  Ewald energy   TEWEN  =     23333.98470079
  -Hartree energ DENC   =    -29233.90984279
  -exchange      EXHF   =         0.00000000
  -V(xc)+E(xc)   XCENC  =       422.43540829
  PAW double counting   =     82814.18871940   -82641.06475294
  entropy T*S    EENTRO =        -0.00000000
  eigenvalues    EBANDS =     -2679.01616044
  atomic energy  EATOM  =      7593.39991119
  ---------------------------------------------------
  free energy    TOTEN  =      -377.06513662 eV

  energy without entropy =     -377.06513662  energy(sigma->0) =     -377.06513662


--------------------------------------------------------------------------------------------------------




----------------------------------------- Iteration    1(  10)  ---------------------------------------


    POTLOK:  cpu time    4.59: real time    4.60
    SETDIJ:  cpu time    2.82: real time    2.82
     EDDAV:  cpu time   15.13: real time   16.45
       DOS:  cpu time    0.05: real time    0.05
    CHARGE:  cpu time    5.17: real time    5.22
    MIXING:  cpu time    0.17: real time    0.17
    --------------------------------------------
      LOOP:  cpu time   27.92: real time   29.31

 eigenvalue-minimisations  :   768
 total energy-change (2. order) : 0.2686286E-01  (-0.2006461E-01)
 number of electron     166.0000000 magnetization       0.0000000
 augmentation part        5.3536552 magnetization       0.0000044

 Broyden mixing:
  rms(total) = 0.24680E+00    rms(broyden)= 0.24680E+00
  rms(prec ) = 0.29455E+00
  weight for this iteration     100.00

 eigenvalues of (default mixing * dielectric matrix)
  average eigenvalue GAMMA=   1.3899
  2.4749  1.8610  0.8130  0.8130  0.9873

 Free energy of the ion-electron system (eV)
  ---------------------------------------------------
  alpha Z        PSCENC =        12.91687988
  Ewald energy   TEWEN  =     23333.98470079
  -Hartree energ DENC   =    -29222.94544251
  -exchange      EXHF   =         0.00000000
  -V(xc)+E(xc)   XCENC  =       422.39796691
  PAW double counting   =     81138.91526359   -80965.97289946
  entropy T*S    EENTRO =        -0.00000000
  eigenvalues    EBANDS =     -2689.73465416
  atomic energy  EATOM  =      7593.39991119
  ---------------------------------------------------
  free energy    TOTEN  =      -377.03827376 eV

  energy without entropy =     -377.03827376  energy(sigma->0) =     -377.03827376


--------------------------------------------------------------------------------------------------------




----------------------------------------- Iteration    1(  11)  ---------------------------------------


    POTLOK:  cpu time    4.58: real time    4.62
    SETDIJ:  cpu time    2.81: real time    2.82
     EDDAV:  cpu time   15.04: real time   16.35
       DOS:  cpu time    0.05: real time    0.05
    CHARGE:  cpu time    5.25: real time    5.26
    MIXING:  cpu time    0.11: real time    0.11
    --------------------------------------------
      LOOP:  cpu time   27.84: real time   29.21

 eigenvalue-minimisations  :   768
 total energy-change (2. order) : 0.1469634E+00  (-0.1902907E-01)
 number of electron     166.0000000 magnetization       0.0000000
 augmentation part        5.2896548 magnetization      -0.0000079

 Broyden mixing:
  rms(total) = 0.10240E+00    rms(broyden)= 0.10240E+00
  rms(prec ) = 0.14611E+00
  weight for this iteration     100.00

 eigenvalues of (default mixing * dielectric matrix)
  average eigenvalue GAMMA=   1.4895
  2.6641  2.6641  0.8255  0.8255  0.9790  0.9790

 Free energy of the ion-electron system (eV)
  ---------------------------------------------------
  alpha Z        PSCENC =        12.91687988
  Ewald energy   TEWEN  =     23333.98470079
  -Hartree energ DENC   =    -29221.85717161
  -exchange      EXHF   =         0.00000000
  -V(xc)+E(xc)   XCENC  =       423.16013372
  PAW double counting   =     81875.14602093   -81701.91494037
  entropy T*S    EENTRO =        -0.00000000
  eigenvalues    EBANDS =     -2691.72684494
  atomic energy  EATOM  =      7593.39991119
  ---------------------------------------------------
  free energy    TOTEN  =      -376.89131039 eV

  energy without entropy =     -376.89131039  energy(sigma->0) =     -376.89131039


--------------------------------------------------------------------------------------------------------




----------------------------------------- Iteration    1(  12)  ---------------------------------------


    POTLOK:  cpu time    4.72: real time    4.77
    SETDIJ:  cpu time    2.79: real time    2.79
     EDDAV:  cpu time   15.13: real time   16.45
       DOS:  cpu time    0.05: real time    0.05
    CHARGE:  cpu time    5.20: real time    5.21
    MIXING:  cpu time    0.18: real time    0.19
    --------------------------------------------
      LOOP:  cpu time   28.07: real time   29.47

 eigenvalue-minimisations  :   768
 total energy-change (2. order) : 0.7129604E-01  (-0.1024828E-01)
 number of electron     166.0000000 magnetization       0.0000000
 augmentation part        5.2452411 magnetization       0.0000171

 Broyden mixing:
  rms(total) = 0.70002E-01    rms(broyden)= 0.69998E-01
  rms(prec ) = 0.99948E-01
  weight for this iteration     100.00

 eigenvalues of (default mixing * dielectric matrix)
  average eigenvalue GAMMA=   1.4798
  2.8368  2.8368  1.0368  1.0368  0.8342  0.8342  0.9433

 Free energy of the ion-electron system (eV)
  ---------------------------------------------------
  alpha Z        PSCENC =        12.91687988
  Ewald energy   TEWEN  =     23333.98470079
  -Hartree energ DENC   =    -29216.62317468
  -exchange      EXHF   =         0.00000000
  -V(xc)+E(xc)   XCENC  =       423.76092285
  PAW double counting   =     81652.39413434   -81479.04503161
  entropy T*S    EENTRO =        -0.00000000
  eigenvalues    EBANDS =     -2697.60835711
  atomic energy  EATOM  =      7593.39991119
  ---------------------------------------------------
  free energy    TOTEN  =      -376.82001435 eV

  energy without entropy =     -376.82001435  energy(sigma->0) =     -376.82001435


--------------------------------------------------------------------------------------------------------




----------------------------------------- Iteration    1(  13)  ---------------------------------------


    POTLOK:  cpu time    4.58: real time    4.62
    SETDIJ:  cpu time    2.80: real time    2.81
     EDDAV:  cpu time   15.04: real time   16.34
       DOS:  cpu time    0.05: real time    0.05
    CHARGE:  cpu time    5.17: real time    5.19
    MIXING:  cpu time    0.09: real time    0.09
    --------------------------------------------
      LOOP:  cpu time   27.72: real time   29.10

 eigenvalue-minimisations  :   768
 total energy-change (2. order) : 0.2414663E-01  (-0.2806567E-02)
 number of electron     166.0000000 magnetization       0.0000000
 augmentation part        5.2579737 magnetization      -0.0000448

 Broyden mixing:
  rms(total) = 0.43434E-01    rms(broyden)= 0.43433E-01
  rms(prec ) = 0.63993E-01
  weight for this iteration     100.00

 eigenvalues of (default mixing * dielectric matrix)
  average eigenvalue GAMMA=   1.5805
  3.6306  2.8117  1.6765  1.1117  1.1117  0.8303  0.8303  0.6411

 Free energy of the ion-electron system (eV)
  ---------------------------------------------------
  alpha Z        PSCENC =        12.91687988
  Ewald energy   TEWEN  =     23333.98470079
  -Hartree energ DENC   =    -29206.75684366
  -exchange      EXHF   =         0.00000000
  -V(xc)+E(xc)   XCENC  =       424.07598055
  PAW double counting   =     81053.71108745   -80880.50371023
  entropy T*S    EENTRO =        -0.00000000
  eigenvalues    EBANDS =     -2707.62387369
  atomic energy  EATOM  =      7593.39991119
  ---------------------------------------------------
  free energy    TOTEN  =      -376.79586773 eV

  energy without entropy =     -376.79586773  energy(sigma->0) =     -376.79586773


--------------------------------------------------------------------------------------------------------




----------------------------------------- Iteration    1(  14)  ---------------------------------------


    POTLOK:  cpu time    4.67: real time    4.71
    SETDIJ:  cpu time    2.81: real time    2.82
     EDDAV:  cpu time   15.12: real time   16.44
       DOS:  cpu time    0.05: real time    0.05
    CHARGE:  cpu time    5.11: real time    5.12
    MIXING:  cpu time    0.24: real time    0.24
    --------------------------------------------
      LOOP:  cpu time   28.00: real time   29.38

 eigenvalue-minimisations  :   768
 total energy-change (2. order) : 0.6174838E-02  (-0.1116138E-02)
 number of electron     166.0000000 magnetization       0.0000000
 augmentation part        5.2593016 magnetization       0.0000276

 Broyden mixing:
  rms(total) = 0.28712E-01    rms(broyden)= 0.28711E-01
  rms(prec ) = 0.43009E-01
  weight for this iteration     100.00

 eigenvalues of (default mixing * dielectric matrix)
  average eigenvalue GAMMA=   1.6107
  4.4234  2.5852  1.9761  1.2390  1.0083  1.0083  0.8199  0.8199  0.6165

 Free energy of the ion-electron system (eV)
  ---------------------------------------------------
  alpha Z        PSCENC =        12.91687988
  Ewald energy   TEWEN  =     23333.98470079
  -Hartree energ DENC   =    -29198.84247806
  -exchange      EXHF   =         0.00000000
  -V(xc)+E(xc)   XCENC  =       424.27666983
  PAW double counting   =     80889.71988371   -80716.56158410
  entropy T*S    EENTRO =        -0.00000000
  eigenvalues    EBANDS =     -2715.68367613
  atomic energy  EATOM  =      7593.39991119
  ---------------------------------------------------
  free energy    TOTEN  =      -376.78969289 eV

  energy without entropy =     -376.78969289  energy(sigma->0) =     -376.78969289


--------------------------------------------------------------------------------------------------------




----------------------------------------- Iteration    1(  15)  ---------------------------------------


    POTLOK:  cpu time    4.58: real time    4.63
    SETDIJ:  cpu time    2.78: real time    2.80
     EDDAV:  cpu time   15.06: real time   16.35
       DOS:  cpu time    0.06: real time    0.06
    CHARGE:  cpu time    5.30: real time    5.32
    MIXING:  cpu time    0.10: real time    0.10
    --------------------------------------------
      LOOP:  cpu time   27.88: real time   29.25

 eigenvalue-minimisations  :   768
 total energy-change (2. order) :-0.3907098E-02  (-0.3587863E-03)
 number of electron     166.0000000 magnetization       0.0000000
 augmentation part        5.2558405 magnetization      -0.0000071

 Broyden mixing:
  rms(total) = 0.22372E-01    rms(broyden)= 0.22371E-01
  rms(prec ) = 0.31327E-01
  weight for this iteration     100.00

 eigenvalues of (default mixing * dielectric matrix)
  average eigenvalue GAMMA=   1.6037
  4.8730  2.3394  2.3394  1.3795  1.1056  1.1056  0.8239  0.8239  0.6695  0.5769

 Free energy of the ion-electron system (eV)
  ---------------------------------------------------
  alpha Z        PSCENC =        12.91687988
  Ewald energy   TEWEN  =     23333.98470079
  -Hartree energ DENC   =    -29191.00196612
  -exchange      EXHF   =         0.00000000
  -V(xc)+E(xc)   XCENC  =       424.36930677
  PAW double counting   =     80980.80851367   -80807.63731022
  entropy T*S    EENTRO =        -0.00000000
  eigenvalues    EBANDS =     -2723.63363594
  atomic energy  EATOM  =      7593.39991119
  ---------------------------------------------------
  free energy    TOTEN  =      -376.79359999 eV

  energy without entropy =     -376.79359999  energy(sigma->0) =     -376.79359999


--------------------------------------------------------------------------------------------------------




----------------------------------------- Iteration    1(  16)  ---------------------------------------


    POTLOK:  cpu time    4.77: real time    4.81
    SETDIJ:  cpu time    2.78: real time    2.79
     EDDAV:  cpu time   15.03: real time   16.34
       DOS:  cpu time    0.05: real time    0.05
    CHARGE:  cpu time    5.19: real time    5.20
    MIXING:  cpu time    0.12: real time    0.12
    --------------------------------------------
      LOOP:  cpu time   27.96: real time   29.33

 eigenvalue-minimisations  :   768
 total energy-change (2. order) :-0.8139469E-02  (-0.1792077E-03)
 number of electron     166.0000000 magnetization       0.0000000
 augmentation part        5.2588801 magnetization       0.0000033

 Broyden mixing:
  rms(total) = 0.16299E-01    rms(broyden)= 0.16298E-01
  rms(prec ) = 0.21600E-01
  weight for this iteration     100.00

 eigenvalues of (default mixing * dielectric matrix)
  average eigenvalue GAMMA=   1.7309
  5.8103  2.6977  2.6977  1.7428  1.1708  1.1708  0.8282  0.8282  0.9925  0.6290
  0.4721

 Free energy of the ion-electron system (eV)
  ---------------------------------------------------
  alpha Z        PSCENC =        12.91687988
  Ewald energy   TEWEN  =     23333.98470079
  -Hartree energ DENC   =    -29183.19332652
  -exchange      EXHF   =         0.00000000
  -V(xc)+E(xc)   XCENC  =       424.33954328
  PAW double counting   =     81046.60275590   -80873.42419217
  entropy T*S    EENTRO =        -0.00000000
  eigenvalues    EBANDS =     -2731.42801182
  atomic energy  EATOM  =      7593.39991119
  ---------------------------------------------------
  free energy    TOTEN  =      -376.80173946 eV

  energy without entropy =     -376.80173946  energy(sigma->0) =     -376.80173946


--------------------------------------------------------------------------------------------------------




----------------------------------------- Iteration    1(  17)  ---------------------------------------


    POTLOK:  cpu time    4.60: real time    4.64
    SETDIJ:  cpu time    2.81: real time    2.82
     EDDAV:  cpu time   15.04: real time   16.35
       DOS:  cpu time    0.05: real time    0.05
    CHARGE:  cpu time    5.19: real time    5.20
    MIXING:  cpu time    0.18: real time    0.18
    --------------------------------------------
      LOOP:  cpu time   27.88: real time   29.24

 eigenvalue-minimisations  :   768
 total energy-change (2. order) :-0.5419495E-02  (-0.1364766E-03)
 number of electron     166.0000000 magnetization       0.0000000
 augmentation part        5.2621795 magnetization       0.0000060

 Broyden mixing:
  rms(total) = 0.85819E-02    rms(broyden)= 0.85817E-02
  rms(prec ) = 0.12310E-01
  weight for this iteration     100.00

 eigenvalues of (default mixing * dielectric matrix)
  average eigenvalue GAMMA=   1.7619
  6.5381  2.8463  2.8463  1.5547  1.5547  1.1809  0.8303  0.8303  0.9774  0.8897
  0.6252  0.4686

 Free energy of the ion-electron system (eV)
  ---------------------------------------------------
  alpha Z        PSCENC =        12.91687988
  Ewald energy   TEWEN  =     23333.98470079
  -Hartree energ DENC   =    -29176.82717067
  -exchange      EXHF   =         0.00000000
  -V(xc)+E(xc)   XCENC  =       424.29679167
  PAW double counting   =     81085.01187292   -80911.83086149
  entropy T*S    EENTRO =        -0.00000000
  eigenvalues    EBANDS =     -2737.75928324
  atomic energy  EATOM  =      7593.39991119
  ---------------------------------------------------
  free energy    TOTEN  =      -376.80715895 eV

  energy without entropy =     -376.80715895  energy(sigma->0) =     -376.80715895


--------------------------------------------------------------------------------------------------------




----------------------------------------- Iteration    1(  18)  ---------------------------------------


    POTLOK:  cpu time    4.69: real time    4.73
    SETDIJ:  cpu time    2.85: real time    2.86
     EDDAV:  cpu time   15.01: real time   16.34
       DOS:  cpu time    0.05: real time    0.05
    CHARGE:  cpu time    5.33: real time    5.36
    MIXING:  cpu time    0.11: real time    0.11
    --------------------------------------------
      LOOP:  cpu time   28.05: real time   29.46

 eigenvalue-minimisations  :   768
 total energy-change (2. order) :-0.5037341E-02  (-0.5581404E-04)
 number of electron     166.0000000 magnetization       0.0000000
 augmentation part        5.2623863 magnetization      -0.0000023

 Broyden mixing:
  rms(total) = 0.62636E-02    rms(broyden)= 0.62635E-02
  rms(prec ) = 0.84250E-02
  weight for this iteration     100.00

 eigenvalues of (default mixing * dielectric matrix)
[...]
 12.599   0.000  21.222   0.000   0.000   0.000  -0.004   0.000  -0.011   0.000   0.000   0.000  -0.006   0.000  -0.019   0.000
 21.222   0.000  35.745   0.000   0.000   0.000  -0.006   0.000  -0.018   0.000   0.001   0.000  -0.011   0.000  -0.031   0.000
  0.000   0.000   0.000   0.000  -3.556   0.000   0.001   0.000  -0.000   0.000  -6.392   0.000   0.001   0.000  -0.000   0.000
 -0.004   0.000  -0.006   0.000   0.001   0.000  -3.556   0.000  -0.000   0.000   0.001   0.000  -6.392   0.000  -0.001   0.000
 -0.011   0.000  -0.018   0.000  -0.000   0.000  -0.000   0.000  -3.558   0.000  -0.000   0.000  -0.001   0.000  -6.395   0.000
  0.000   0.000   0.001   0.000  -6.392   0.000   0.001   0.000  -0.000   0.000 -11.468   0.000   0.002   0.000  -0.001   0.000
 -0.006   0.000  -0.011   0.000   0.001   0.000  -6.392   0.000  -0.001   0.000   0.002   0.000 -11.468   0.000  -0.002   0.000
 -0.019   0.000  -0.031   0.000  -0.000   0.000  -0.001   0.000  -6.395   0.000  -0.001   0.000  -0.002   0.000 -11.473   0.000
 pseudopotential strength for first ion, spin component:           2
 12.599   0.000  21.222   0.000   0.000   0.000  -0.004   0.000  -0.011   0.000   0.000   0.000  -0.006   0.000  -0.019   0.000
 21.222   0.000  35.745   0.000   0.000   0.000  -0.006   0.000  -0.018   0.000   0.001   0.000  -0.011   0.000  -0.031   0.000
  0.000   0.000   0.000   0.000  -3.556   0.000   0.001   0.000  -0.000   0.000  -6.392   0.000   0.001   0.000  -0.000   0.000
 -0.004   0.000  -0.006   0.000   0.001   0.000  -3.556   0.000  -0.000   0.000   0.001   0.000  -6.392   0.000  -0.001   0.000
 -0.011   0.000  -0.018   0.000  -0.000   0.000  -0.000   0.000  -3.558   0.000  -0.000   0.000  -0.001   0.000  -6.395   0.000
  0.000   0.000   0.001   0.000  -6.392   0.000   0.001   0.000  -0.000   0.000 -11.468   0.000   0.002   0.000  -0.001   0.000
 -0.006   0.000  -0.011   0.000   0.001   0.000  -6.392   0.000  -0.001   0.000   0.002   0.000 -11.468   0.000  -0.002   0.000
 -0.019   0.000  -0.031   0.000  -0.000   0.000  -0.001   0.000  -6.395   0.000  -0.001   0.000  -0.002   0.000 -11.473   0.000
 total augmentation occupancy for first ion, spin component:           1
  1.768  -0.559  -0.082  -0.077  -0.606   0.011   0.048   0.242
 -0.559   0.675   0.009   0.076   0.330   0.013  -0.035  -0.105
 -0.082   0.009   1.923  -1.065   0.179  -0.238   0.311  -0.053
 -0.077   0.076  -1.065   1.950   0.506   0.311  -0.254  -0.181
 -0.606   0.330   0.179   0.506   3.375  -0.053  -0.181  -0.793
  0.011   0.013  -0.238   0.311  -0.053   0.151  -0.026  -0.005
  0.048  -0.035   0.311  -0.254  -0.181  -0.026   0.162   0.041
  0.242  -0.105  -0.053  -0.181  -0.793  -0.005   0.041   0.277
 total augmentation occupancy for first ion, spin component:           2
  0.000   0.000  -0.000   0.000  -0.000   0.000  -0.000   0.000
  0.000  -0.000   0.000  -0.000   0.000   0.000   0.000   0.000
 -0.000   0.000  -0.000  -0.000   0.000   0.000  -0.000  -0.000
  0.000  -0.000  -0.000  -0.000  -0.000  -0.000   0.000   0.000
 -0.000   0.000   0.000  -0.000  -0.000  -0.000   0.000   0.000
  0.000   0.000   0.000  -0.000  -0.000   0.000   0.000  -0.000
 -0.000   0.000  -0.000   0.000   0.000   0.000   0.000  -0.000
  0.000   0.000  -0.000   0.000   0.000  -0.000  -0.000  -0.000


------------------------ aborting loop because EDIFF is reached ----------------------------------------


    CHARGE:  cpu time    5.05: real time    5.16
    FORLOC:  cpu time    0.67: real time    0.67
    FORNL :  cpu time   19.44: real time   19.48
    STRESS:  cpu time   61.24: real time   61.42
    FORCOR:  cpu time    4.21: real time    4.23
    FORHAR:  cpu time    1.00: real time    1.01
    MIXING:  cpu time    0.20: real time    0.20
    OFIELD:  cpu time    0.00: real time    0.00

  FORCE on cell =-STRESS in cart. coord.  units (eV):
  Direction    XX          YY          ZZ          XY          YZ          ZX
  --------------------------------------------------------------------------------------
  Alpha Z    12.91688    12.91688    12.91688
  Ewald   11202.08738  5607.39554  6524.48732   366.14494 -1618.31979   931.08294
  Hartree 12558.12108  7817.50725  8790.89603    85.71887 -1462.57378   741.12089
  E(xc)    -688.85589  -691.39407  -692.05320     1.42692    -0.23624     0.69043
  Local  -26131.35973-15829.54192-17739.63621  -430.16508  3075.34753 -1670.57848
  n-local   -27.98730   -28.52877   -32.10468     3.70889    -1.50407    -0.80087
  augment    83.33894    84.14188    82.80248     1.75759    -0.05818     0.12054
  Kinetic  2977.45800  3012.71031  3037.89605   -28.93042     9.42793    -1.71528
  Fock        0.00000     0.00000     0.00000     0.00000     0.00000     0.00000
  -------------------------------------------------------------------------------------
  Total     -14.28063   -14.79290   -14.79531    -0.33828     2.08340    -0.07983
  in kB      -2.86001    -2.96261    -2.96309    -0.06775     0.41725    -0.01599
  external pressure =       -2.93 kB  Pullay stress =        0.00 kB


 VOLUME and BASIS-vectors are now :
 -----------------------------------------------------------------------------
  energy-cutoff  :      700.00
  volume of cell :     8000.00
      direct lattice vectors                 reciprocal lattice vectors
    20.000000000  0.000000000  0.000000000     0.050000000  0.000000000  0.000000000
     0.000000000 20.000000000  0.000000000     0.000000000  0.050000000  0.000000000
     0.000000000  0.000000000 20.000000000     0.000000000  0.000000000  0.050000000

  length of vectors
    20.000000000 20.000000000 20.000000000     0.050000000  0.050000000  0.050000000


 FORCES acting on ions
    electron-ion (+dipol)            ewald-force                    non-local-force                 convergence-correction
 -----------------------------------------------------------------------------------------------
   -.253E+03 0.139E+03 -.155E+03   0.260E+03 -.139E+03 0.157E+03   -.626E+01 0.142E+00 -.213E+01   -.231E-04 0.281E-04 -.514E-04
   0.880E+02 -.921E+01 0.333E+03   -.887E+02 0.950E+01 -.335E+03   0.678E+00 -.294E+00 0.189E+01   -.324E-05 -.176E-04 -.494E-04
   0.682E+02 0.801E+02 0.318E+03   -.704E+02 -.823E+02 -.325E+03   0.219E+01 0.209E+01 0.646E+01   0.144E-04 -.382E-04 0.666E-04
   0.408E+01 -.318E+03 0.301E+02   -.436E+01 0.325E+03 -.296E+02   0.309E+00 -.704E+01 -.473E+00   0.504E-05 -.736E-04 0.296E-04
   0.364E+02 -.325E+03 0.105E+03   -.368E+02 0.327E+03 -.106E+03   0.375E+00 -.184E+01 0.668E+00   0.827E-05 0.324E-04 -.181E-04
   0.805E+02 -.208E+03 0.263E+03   -.810E+02 0.209E+03 -.265E+03   0.548E+00 -.115E+01 0.143E+01   -.337E-05 0.516E-04 -.721E-04
   0.764E+02 0.269E+03 -.220E+03   -.774E+02 -.271E+03 0.222E+03   0.921E+00 0.180E+01 -.164E+01   -.208E-04 -.638E-04 0.406E-04
   0.154E+03 0.257E+03 -.165E+03   -.159E+03 -.262E+03 0.169E+03   0.517E+01 0.492E+01 -.370E+01   -.285E-04 0.264E-04 -.277E-04
   0.323E+03 -.350E+02 -.116E+03   -.325E+03 0.348E+02 0.117E+03   0.242E+01 0.211E+00 -.279E+00   0.204E-04 0.256E-04 0.400E-04
   -.262E+03 0.150E+03 -.188E+03   0.265E+03 -.153E+03 0.193E+03   -.329E+01 0.399E+01 -.490E+01   0.653E-04 -.298E-04 0.162E-04
   -.339E+03 -.704E+02 -.425E+00   0.341E+03 0.713E+02 0.765E-01   -.233E+01 -.901E+00 0.319E+00   0.787E-04 0.190E-04 -.207E-05
   -.258E+03 -.193E+03 0.138E+03   0.260E+03 0.195E+03 -.139E+03   -.153E+01 -.141E+01 0.913E+00   0.493E-04 0.546E-04 -.475E-04
   -.181E+03 -.215E+03 0.188E+03   0.185E+03 0.220E+03 -.192E+03   -.326E+01 -.549E+01 0.445E+01   -.549E-04 -.196E-04 -.177E-04
   -.269E+03 0.581E+02 -.879E+02   0.276E+03 -.564E+02 0.880E+02   -.759E+01 -.185E+01 -.149E-01   -.323E-04 0.143E-04 -.427E-04
   -.317E+03 0.593E+02 -.111E+03   0.320E+03 -.589E+02 0.111E+03   -.317E+01 -.667E+00 -.120E+00   0.767E-05 -.333E-04 0.196E-04
   -.122E+03 0.235E+03 -.241E+03   0.122E+03 -.237E+03 0.243E+03   -.368E+00 0.217E+01 -.231E+01   0.170E-04 -.784E-04 0.523E-04
   0.272E+03 -.296E+02 -.103E+03   -.277E+03 0.314E+02 0.106E+03   0.515E+01 -.181E+01 -.269E+01   0.759E-04 0.295E-04 -.819E-05
   0.128E+03 -.218E+03 -.261E+03   -.128E+03 0.220E+03 0.263E+03   0.729E+00 -.133E+01 -.160E+01   -.496E-04 0.571E-04 0.523E-04
   -.739E+02 -.256E+03 -.246E+03   0.741E+02 0.258E+03 0.248E+03   -.287E+00 -.151E+01 -.155E+01   -.193E-04 0.472E-04 0.301E-04
   -.157E+03 -.238E+03 -.196E+03   0.161E+03 0.243E+03 0.201E+03   -.389E+01 -.486E+01 -.420E+01   -.222E-04 -.519E-04 -.530E-04
   0.233E+03 -.965E+02 -.158E+03   -.239E+03 0.974E+02 0.160E+03   0.577E+01 -.937E+00 -.270E+01   0.229E-04 -.292E-04 -.579E-04
   0.265E+03 -.124E+03 -.200E+03   -.267E+03 0.126E+03 0.202E+03   0.132E+01 -.127E+01 -.181E+01   -.304E-04 -.753E-05 -.241E-04
   0.148E+03 0.264E+03 0.193E+03   -.151E+03 -.269E+03 -.197E+03   0.344E+01 0.490E+01 0.412E+01   0.517E-04 0.285E-04 -.658E-05
   0.241E+03 0.223E+03 0.143E+03   -.243E+03 -.224E+03 -.144E+03   0.162E+01 0.118E+01 0.836E+00   -.325E-04 -.564E-04 -.483E-04
   0.337E+03 0.955E+02 0.324E+01   -.339E+03 -.961E+02 -.341E+01   0.197E+01 0.530E+00 0.155E+00   -.547E-04 -.382E-04 0.146E-04
   0.454E+02 0.807E+02 -.637E+02   -.491E+02 -.846E+02 0.667E+02   0.367E+01 0.385E+01 -.292E+01   -.651E-06 -.186E-04 0.123E-04
   -.417E+02 0.698E+02 -.760E+02   0.442E+02 -.735E+02 0.802E+02   -.242E+01 0.365E+01 -.421E+01   0.831E-05 -.269E-04 0.204E-04
   -.100E+03 0.284E+02 -.494E+02   0.106E+03 -.281E+02 0.506E+02   -.592E+01 -.219E+00 -.131E+01   0.112E-04 -.931E-05 0.348E-05
   -.405E+02 0.150E+03 0.164E+02   0.423E+02 -.157E+03 -.131E+02   -.179E+01 0.756E+01 -.334E+01   -.120E-04 0.297E-04 0.105E-05
   0.101E+03 -.225E+02 -.517E+02   -.107E+03 0.221E+02 0.529E+02   0.582E+01 0.409E+00 -.121E+01   -.132E-04 0.599E-05 0.737E-05
   0.806E+02 0.680E+02 -.317E+02   -.865E+02 -.681E+02 0.303E+02   0.594E+01 0.142E+00 0.134E+01   -.233E-05 0.788E-05 -.690E-05
   0.267E+02 -.664E+02 0.814E+02   -.282E+02 0.701E+02 -.858E+02   0.154E+01 -.372E+01 0.448E+01   -.453E-05 0.237E-04 -.319E-04
   0.595E+01 -.110E+03 0.889E+01   -.591E+01 0.116E+03 -.781E+01   -.325E-01 -.588E+01 -.107E+01   0.367E-06 0.265E-04 -.946E-05
   -.141E+02 -.101E+03 -.343E+02   0.156E+02 0.104E+03 0.397E+02   -.154E+01 -.210E+01 -.539E+01   -.281E-05 -.139E-04 0.304E-05
   -.101E+03 0.258E+02 0.116E+03   0.108E+03 -.235E+02 -.121E+03   -.651E+01 -.229E+01 0.485E+01   -.200E-04 0.104E-04 0.191E-04
   -.923E+02 0.383E+02 -.535E+02   0.956E+02 -.415E+02 0.573E+02   -.332E+01 0.322E+01 -.375E+01   0.101E-04 -.522E-05 0.251E-05
   -.661E+02 -.715E+02 0.548E+02   0.686E+02 0.758E+02 -.582E+02   -.246E+01 -.428E+01 0.346E+01   0.184E-04 0.145E-04 -.118E-04
   0.175E+02 0.710E+02 0.885E+02   -.176E+02 -.769E+02 -.893E+02   0.521E-01 0.596E+01 0.732E+00   0.195E-05 -.505E-05 0.107E-04
   0.432E+01 0.904E+02 0.775E+02   -.744E+00 -.934E+02 -.812E+02   -.358E+01 0.300E+01 0.375E+01   0.455E-05 0.258E-05 -.421E-05
   0.603E+02 0.771E+02 0.571E+02   -.626E+02 -.813E+02 -.607E+02   0.229E+01 0.426E+01 0.357E+01   -.162E-04 -.193E-04 -.142E-04
   -.105E+03 -.198E+02 -.441E+01   0.111E+03 0.208E+02 0.489E+01   -.595E+01 -.962E+00 -.459E+00   0.329E-04 0.103E-04 -.287E-05
   -.835E+02 -.645E+02 -.382E+02   0.894E+02 0.648E+02 0.369E+02   -.587E+01 -.263E+00 0.130E+01   -.326E-05 -.995E-05 -.912E-05
   0.286E+02 0.211E+02 0.104E+03   -.302E+02 -.236E+02 -.109E+03   0.153E+01 0.241E+01 0.526E+01   -.465E-05 -.304E-05 -.294E-04
   -.453E+02 -.785E+02 -.699E+02   0.488E+02 0.822E+02 0.730E+02   -.358E+01 -.374E+01 -.304E+01   -.280E-05 0.217E-04 0.178E-04
   0.947E+02 -.331E+02 -.543E+02   -.981E+02 0.362E+02 0.580E+02   0.345E+01 -.312E+01 -.372E+01   -.835E-05 0.364E-05 0.117E-04
   0.105E+03 0.252E+02 -.236E+01   -.111E+03 -.263E+02 0.267E+01   0.591E+01 0.108E+01 -.304E+00   -.307E-04 -.163E-04 0.369E-05
   -.228E+02 -.761E+02 0.741E+02   0.194E+02 0.792E+02 -.779E+02   0.345E+01 -.320E+01 0.381E+01   -.447E-05 -.377E-05 -.410E-05
   0.433E+02 -.659E+02 -.805E+02   -.458E+02 0.693E+02 0.848E+02   0.248E+01 -.343E+01 -.430E+01   -.145E-04 0.230E-04 0.250E-04
   0.314E+02 -.139E+03 0.222E+03   -.267E+02 0.127E+03 -.208E+03   -.474E+01 0.118E+02 -.144E+02   0.181E-04 -.109E-03 0.108E-03
   0.233E+03 0.163E+03 0.625E+02   -.214E+03 -.160E+03 -.640E+02   -.192E+02 -.324E+01 0.158E+01   0.112E-03 0.821E-04 0.181E-04
   -.278E+02 0.236E+03 -.158E+03   0.136E+02 -.223E+03 0.142E+03   0.143E+02 -.128E+02 0.159E+02   -.834E-04 0.986E-04 -.114E-03
   0.402E+02 -.197E+03 -.197E+03   -.329E+02 0.188E+03 0.185E+03   -.739E+01 0.909E+01 0.123E+02   -.233E-04 -.109E-03 -.110E-03
   -.253E+03 -.993E+02 0.711E+02   0.232E+03 0.975E+02 -.737E+02   0.213E+02 0.155E+01 0.276E+01   -.129E-03 -.660E-04 -.128E-04
   -.122E+03 0.404E+03 0.424E+03   0.819E+02 -.387E+03 -.427E+03   0.397E+02 -.172E+02 0.278E+01   -.694E-04 0.146E-03 0.989E-04
   -.666E+02 0.126E+03 0.235E+03   0.648E+02 -.123E+03 -.231E+03   0.197E+01 -.350E+01 -.347E+01   -.319E-04 -.108E-05 -.779E-04
 -----------------------------------------------------------------------------------------------
   -.397E+02 0.224E+02 -.615E+01   -.128E-12 0.142E-12 -.853E-13   0.398E+02 -.224E+02 0.615E+01   -.219E-03 -.335E-04 -.240E-03
 
 
 POSITION                                       TOTAL-FORCE (eV/Angst)
 -----------------------------------------------------------------------------------
     12.04547      8.38666     12.11872         0.323780     -0.137893      0.212704
      8.75875     11.31222      6.55140         0.003217     -0.006061      0.005180
      9.11624     10.48468      7.61029         0.000358     -0.068735      0.009240
      9.47459     12.30603      8.99730         0.019746      0.015458      0.053066
      9.11904     13.19266      7.98704         0.007758     -0.000522      0.007710
      8.75715     12.69444      6.73519         0.001389     -0.004934      0.007832
     10.46158      6.59100     13.49490        -0.009013      0.038546     -0.032900
      9.94203      7.43809     12.52376         0.148277     -0.047120      0.113841
      5.86694      9.53439     11.36602         0.007174      0.012524      0.012491
     12.61928      7.55238     13.08448        -0.470882      0.386692     -0.483521
     14.79299     10.57118     10.69264        -0.048461      0.019385     -0.029541
     14.01643     11.32257      9.80881         0.017304     -0.015098      0.021237
     12.65158     11.07272      9.73048         0.026321     -0.015335      0.025560
     12.79043      9.38554     11.34657        -0.241666     -0.177816      0.124957
     14.16878      9.59490     11.46294        -0.073885     -0.222566      0.195452
     11.82695      6.64488     13.78060         0.043418      0.065734     -0.056068
      7.24231      9.77330     11.28348         0.007177     -0.006780     -0.023941
      8.15819     12.44233     13.81164         0.021618     -0.009250     -0.019860
      9.52399     12.52132     13.53212         0.007719      0.011852      0.017097
     10.05904     11.71816     12.53361        -0.001710     -0.022390     -0.034814
      7.96508     10.76003     12.08522         0.023579     -0.006827     -0.026862
      7.38092     11.55121     13.07965        -0.010091     -0.003751     -0.004201
      7.45796      8.11597      9.64469         0.060070      0.002100     -0.002792
      6.09730      7.83470      9.68863        -0.026436     -0.001964      0.009058
      5.28440      8.55710     10.56432         0.021059     -0.011075     -0.016401
      9.79795      5.90212     14.01497        -0.002440     -0.015505      0.011546
     12.26685      5.99367     14.53463         0.057129      0.035831     -0.022785
     13.68484      7.61538     13.29576        -0.017500      0.118018     -0.120293
     10.84507      7.24677      9.22597        -0.020397     -0.020356     -0.074725
      6.31582     11.46138     13.28407        -0.000666      0.006581     -0.001820
      8.88327      7.42377     12.27295         0.041996      0.058958     -0.057003
      8.47853     13.36665      5.92453        -0.004008      0.005337     -0.001255
      9.12855     14.26265      8.19005         0.004440     -0.001116      0.004168
      9.76183     12.67176      9.98145        -0.003743      0.017278     -0.004410
     11.38256      8.36174      8.29610        -0.003993     -0.011136     -0.058075
     14.75349      8.99278     12.15530         0.048635      0.015556     -0.004545
     14.45552     12.09620      9.18096         0.008173      0.002099     -0.004904
      9.11405      9.40258      7.49376        -0.014769     -0.001001     -0.016950
      8.12287      7.57771      8.97051        -0.006647     -0.006704     -0.013496
      5.68876      7.06123      9.04041         0.000813     -0.005472     -0.003549
     15.86530     10.74076     10.77851        -0.004051     -0.017513      0.017956
     11.11794     11.75383     12.28812         0.006113      0.021971      0.004084
      8.48240     10.86572      5.59722        -0.003776     -0.004255      0.006580
     10.17895     13.19691     14.08003         0.001733      0.004664     -0.000791
      5.25320     10.11370     12.05309        -0.003177     -0.001202     -0.002901
      4.21445      8.36275     10.62101        -0.005618     -0.000767     -0.002672
     12.01813     11.63958      9.05085        -0.014192     -0.018447      0.011488
      7.70887     13.05934     14.58823        -0.002947      0.008612      0.006612
      9.48490     10.95884      8.82805        -0.035237      0.018717      0.016395
      8.03610      9.06122     10.42169        -0.127452     -0.033900      0.008591
     10.70414      8.32170     11.83465         0.221921      0.322619     -0.210645
      9.30896     10.85100     11.80824        -0.114637      0.153054      0.154056
     12.02768     10.13012     10.47953        -0.117027     -0.242039      0.191719
     10.61480      8.11252      8.84309         0.017715      0.044112      0.055214
     10.01771      9.61740     10.38685         0.235790     -0.248169      0.027884
 -----------------------------------------------------------------------------------
    total drift:                                0.006529     -0.003354      0.002722


--------------------------------------------------------------------------------------------------------



  FREE ENERGIE OF THE ION-ELECTRON SYSTEM (eV)
  ---------------------------------------------------
  free  energy   TOTEN  =      -376.82342237 eV

  energy  without entropy=     -376.82342237  energy(sigma->0) =     -376.82342237
 


--------------------------------------------------------------------------------------------------------


    POTLOK:  cpu time    7.47: real time    7.50


--------------------------------------------------------------------------------------------------------


 writing wavefunctions
     LOOP+:  cpu time 1008.60: real time 1048.36
    4ORBIT:  cpu time    0.00: real time    0.00

 total amount of memory used by VASP on root node   877132. kBytes
========================================================================

   base      :      30000. kBytes
   nonlr-proj:      19361. kBytes
   fftplans  :     269516. kBytes
   grid      :     534988. kBytes
   one-center:       1710. kBytes
   wavefun   :      21557. kBytes
 
  
  
 General timing and accounting informations for this job:
 ========================================================
  
                  Total CPU time used (sec):     1267.989
                            User time (sec):     1116.492
                          System time (sec):      151.497
                         Elapsed time (sec):     1312.213
  
                   Maximum memory used (kb):     1490236.
                   Average memory used (kb):           0.
  
                          Minor page faults:      6844440
                          Major page faults:            1
                 Voluntary context switches:       273080
