<?xml version="1.0" encoding="ISO-8859-1"?>
<modeling>
 <generator>
  <i name="program" type="string">vasp </i>
  <i name="version" type="string">5.3.5  </i>
  <i name="subversion" type="string">31Mar14 (build Apr 08 2014 12:00:03) complex                          parallel </i>
  <i name="platform" type="string">NSC-NSCPATCH-BUILD02 </i>
  <i name="date" type="string">2017 03 15 </i>
  <i name="time" type="string">18:38:24 </i>
 </generator>
 <incar>
  <i type="string" name="SYSTEM"> c2_oh2_ruthenium_mol</i>
  <i type="int" name="ISTART">     0</i>
  <i type="string" name="PREC">accurate</i>
  <i type="int" name="IALGO">    38</i>
  <i type="logical" name="ADDGRID"> T  </i>
  <i type="int" name="ISPIN">     2</i>
  <i name="BMIX">      2.00000000</i>
  <i type="int" name="ICHARG">     2</i>
  <i name="EDIFF">      0.00001000</i>
  <i name="EDIFFG">     -0.01000000</i>
  <i name="ENCUT">    700.00000000</i>
  <i name="POTIM">      0.50000000</i>
  <i name="NUPDOWN">      0.00000000</i>
  <i name="NELECT">    166.00000000</i>
  <i type="string" name="LREAL"> Auto</i>
  <i name="TIME">      0.05000000</i>
  <i type="int" name="ISMEAR">     0</i>
  <i name="SIGMA">      0.01000000</i>
  <i type="int" name="ICORELEVEL">     2</i>
  <i type="int" name="CLNT">     1</i>
  <i type="int" name="CLN">     1</i>
  <i type="int" name="INCAR     ">     0</i>
  <i name="CLZ">      0.50000000</i>
 </incar>
 <kpoints>
  <generation param="Monkhorst-Pack">
   <v type="int" name="divisions">       1        1        1 </v>
   <v name="usershift">      0.00000000       0.00000000       0.00000000 </v>
   <v name="genvec1">      1.00000000       0.00000000       0.00000000 </v>
   <v name="genvec2">      0.00000000       1.00000000       0.00000000 </v>
   <v name="genvec3">      0.00000000       0.00000000       1.00000000 </v>
   <v name="shift">      0.00000000       0.00000000       0.00000000 </v>
  </generation>
  <varray name="kpointlist" >
   <v>       0.00000000       0.00000000       0.00000000 </v>
  </varray>
  <varray name="weights" >
   <v>       1.00000000 </v>
  </varray>
 </kpoints>
 <parameters>
  <separator name="general" >
   <i type="string" name="SYSTEM">c2_oh2_ruthenium_mol</i>
   <i type="logical" name="LCOMPAT"> F  </i>
  </separator>
  <separator name="electronic" >
   <i type="string" name="PREC">accura</i>
   <i name="ENMAX">    700.00000000</i>
   <i name="ENAUG">    946.76800000</i>
   <i name="EDIFF">      0.00001000</i>
   <i type="int" name="IALGO">    38</i>
   <i type="int" name="IWAVPR">    10</i>
   <i type="int" name="NBANDS">   128</i>
   <i name="NELECT">    166.00000000</i>
   <i type="int" name="TURBO">     0</i>
   <i type="int" name="IRESTART">     0</i>
   <i type="int" name="NREBOOT">     0</i>
   <i type="int" name="NMIN">     0</i>
   <i name="EREF">      0.00000000</i>
   <separator name="electronic smearing" >
    <i type="int" name="ISMEAR">     0</i>
    <i name="SIGMA">      0.01000000</i>
    <i name="KSPACING">      0.50000000</i>
    <i type="logical" name="KGAMMA"> T  </i>
   </separator>
   <separator name="electronic projectors" >
    <i type="logical" name="LREAL"> T  </i>
    <v name="ROPT">     -0.00025000     -0.00025000     -0.00025000     -0.00025000     -0.00025000     -0.00025000</v>
    <i type="int" name="LMAXPAW">  -100</i>
    <i type="int" name="LMAXMIX">     2</i>
    <i type="logical" name="NLSPLINE"> F  </i>
   </separator>
   <separator name="electronic startup" >
    <i type="int" name="ISTART">     0</i>
    <i type="int" name="ICHARG">     2</i>
    <i type="int" name="INIWAV">     1</i>
   </separator>
   <separator name="electronic spin" >
    <i type="int" name="ISPIN">     2</i>
    <i type="logical" name="LNONCOLLINEAR"> F  </i>
    <v name="MAGMOM">      0.00000000      0.00000000      0.00000000      0.00000000      0.00000000      0.00000000      0.00000000      0.00000000      0.00000000      0.00000000      0.00000000      0.00000000      0.00000000      0.00000000      0.00000000      0.00000000      0.00000000      0.00000000      0.00000000      0.00000000
      0.00000000      0.00000000      0.00000000      0.00000000      0.00000000      0.00000000      0.00000000      0.00000000      0.00000000      0.00000000      0.00000000      0.00000000      0.00000000      0.00000000      0.00000000      0.00000000      0.00000000      0.00000000      0.00000000      0.00000000
      0.00000000      0.00000000      0.00000000      0.00000000      0.00000000      0.00000000      0.00000000      0.00000000      0.00000000      0.00000000      0.00000000      0.00000000      0.00000000      0.00000000      0.00000000</v>
    <i name="NUPDOWN">      0.00000000</i>
    <i type="logical" name="LSORBIT"> F  </i>
    <v name="SAXIS">      0.00000000      0.00000000      1.00000000</v>
    <i type="logical" name="LSPIRAL"> F  </i>
    <v name="QSPIRAL">      0.00000000      0.00000000      0.00000000</v>
    <i type="logical" name="LZEROZ"> F  </i>
   </separator>
   <separator name="electronic exchange-correlation" >
    <i type="logical" name="LASPH"> F  </i>
    <i type="logical" name="LMETAGGA"> F  </i>
   </separator>
   <separator name="electronic convergence" >
    <i type="int" name="NELM">    60</i>
    <i type="int" name="NELMDL">    -5</i>
    <i type="int" name="NELMIN">     2</i>
    <i name="ENINI">    700.00000000</i>
    <separator name="electronic convergence detail" >
     <i type="logical" name="LDIAG"> T  </i>
     <i type="logical" name="LSUBROT"> F  </i>
     <i name="WEIMIN">      0.00000000</i>
     <i name="EBREAK">      0.00000002</i>
     <i name="DEPER">      0.30000000</i>
     <i type="int" name="NRMM">     4</i>
     <i name="TIME">      0.05000000</i>
    </separator>
   </separator>
   <separator name="electronic mixer" >
    <i name="AMIX">      0.40000000</i>
    <i name="BMIX">      2.00000000</i>
    <i name="AMIN">      0.10000000</i>
    <i name="AMIX_MAG">      1.60000000</i>
    <i name="BMIX_MAG">      2.00000000</i>
    <separator name="electronic mixer details" >
     <i type="int" name="IMIX">     4</i>
     <i type="int" name="MAXMIX">   -45</i>
     <i name="WC">    100.00000000</i>
     <i type="int" name="INIMIX">     1</i>
     <i type="int" name="MIXPRE">     1</i>
     <i type="int" name="MREMOVE">     5</i>
    </separator>
   </separator>
   <separator name="electronic dipolcorrection" >
    <i type="logical" name="LDIPOL"> F  </i>
    <i type="logical" name="LMONO"> F  </i>
    <i type="int" name="IDIPOL">     0</i>
    <i name="EPSILON">      1.00000000</i>
    <v name="DIPOL">   -100.00000000   -100.00000000   -100.00000000</v>
    <i name="EFIELD">      0.00000000</i>
   </separator>
  </separator>
  <separator name="grids" >
   <i type="int" name="NGX">   180</i>
   <i type="int" name="NGY">   180</i>
   <i type="int" name="NGZ">   180</i>
   <i type="int" name="NGXF">   360</i>
   <i type="int" name="NGYF">   360</i>
   <i type="int" name="NGZF">   360</i>
   <i type="logical" name="ADDGRID"> T  </i>
  </separator>
  <separator name="ionic" >
   <i type="int" name="NSW">     0</i>
   <i type="int" name="IBRION">    -1</i>
   <i type="int" name="ISIF">     2</i>
   <i name="PSTRESS">      0.00000000</i>
   <i name="EDIFFG">     -0.01000000</i>
   <i type="int" name="NFREE">     0</i>
   <i name="POTIM">      0.50000000</i>
   <i name="SMASS">     -3.00000000</i>
   <i name="SCALEE">      1.00000000</i>
  </separator>
  <separator name="ionic md" >
   <i name="TEBEG">      0.00010000</i>
   <i name="TEEND">      0.00010000</i>
   <i type="int" name="NBLOCK">     1</i>
   <i type="int" name="KBLOCK">     1</i>
   <i type="int" name="NPACO">   256</i>
   <i name="APACO">     16.00000000</i>
  </separator>
  <separator name="symmetry" >
   <i type="int" name="ISYM">     2</i>
   <i name="SYMPREC">      0.00001000</i>
  </separator>
  <separator name="dos" >
   <i type="logical" name="LORBIT"> F  </i>
   <v name="RWIGS">     -1.00000000     -1.00000000     -1.00000000     -1.00000000     -1.00000000     -1.00000000</v>
   <i type="int" name="NEDOS">   301</i>
   <i name="EMIN">     10.00000000</i>
   <i name="EMAX">    -10.00000000</i>
   <i name="EFERMI">      0.00000000</i>
  </separator>
  <separator name="writing" >
   <i type="int" name="NWRITE">     2</i>
   <i type="logical" name="LWAVE"> T  </i>
   <i type="logical" name="LCHARG"> T  </i>
   <i type="logical" name="LPARD"> F  </i>
   <i type="logical" name="LVTOT"> F  </i>
   <i type="logical" name="LVHAR"> F  </i>
   <i type="logical" name="LELF"> F  </i>
   <i type="logical" name="LOPTICS"> F  </i>
   <v name="STM">      0.00000000      0.00000000      0.00000000      0.00000000      0.00000000      0.00000000      0.00000000</v>
  </separator>
  <separator name="performance" >
   <i type="int" name="NPAR">    64</i>
   <i type="int" name="NSIM">     4</i>
   <i type="int" name="NBLK">    -1</i>
   <i type="logical" name="LPLANE"> T  </i>
   <i type="logical" name="LSCALAPACK"> T  </i>
   <i type="logical" name="LSCAAWARE"> F  </i>
   <i type="logical" name="LSCALU"> F  </i>
   <i type="logical" name="LASYNC"> F  </i>
   <i type="logical" name="LORBITALREAL"> F  </i>
  </separator>
  <separator name="miscellaneous" >
   <i type="int" name="IDIOT">     3</i>
   <i type="logical" name="LMUSIC"> F  </i>
   <v name="POMASS">     12.01100000     12.01100000      1.00000000     14.00100000     16.00000000    101.07000000</v>
   <v name="DARWINR">      0.00000000      0.00000000      0.00000000      0.00000000      0.00000000      0.00000000</v>
   <v name="DARWINV">      1.00000000      1.00000000      1.00000000      1.00000000      1.00000000      1.00000000</v>
   <i type="logical" name="LCORR"> T  </i>
  </separator>
  <i type="logical" name="GGA_COMPAT"> T  </i>
  <i type="logical" name="LBERRY"> F  </i>
  <i type="int" name="ICORELEVEL">     2</i>
  <i type="int" name="CLNT">     1</i>
  <i type="int" name="CLN">     1</i>
  <i type="int" name="CLL">     0</i>
  <i name="CLZ">      0.50000000</i>
  <i type="logical" name="LDAU"> F  </i>
  <i type="int" name="I_CONSTRAINED_M">     0</i>
  <separator name="electronic exchange-correlation" >
   <i type="string" name="GGA">--</i>
   <i type="int" name="VOSKOWN">     0</i>
   <i type="logical" name="LHFCALC"> F  </i>
   <i type="string" name="PRECFOCK"></i>
   <i type="logical" name="LSYMGRAD"> F  </i>
   <i type="logical" name="LHFONE"> F  </i>
   <i type="logical" name="LRHFCALC"> F  </i>
   <i type="logical" name="LTHOMAS"> F  </i>
   <i type="logical" name="LMODELHF"> F  </i>
   <i name="ENCUT4O">     -1.00000000</i>
   <i type="int" name="EXXOEP">     0</i>
   <i type="int" name="FOURORBIT">     0</i>
   <i name="AEXX">      0.00000000</i>
   <i name="HFALPHA">      0.00000000</i>
   <i name="MCALPHA">      0.00000000</i>
   <i name="ALDAX">      1.00000000</i>
   <i name="AGGAX">      1.00000000</i>
   <i name="ALDAC">      1.00000000</i>
   <i name="AGGAC">      1.00000000</i>
   <i type="int" name="NKREDX">     1</i>
   <i type="int" name="NKREDY">     1</i>
   <i type="int" name="NKREDZ">     1</i>
   <i type="logical" name="SHIFTRED"> F  </i>
   <i type="logical" name="ODDONLY"> F  </i>
   <i type="logical" name="EVENONLY"> F  </i>
   <i type="int" name="LMAXFOCK">     0</i>
   <i type="int" name="NMAXFOCKAE">     0</i>
   <i type="logical" name="LFOCKAEDFT"> F  </i>
   <i name="HFSCREEN">      0.00000000</i>
   <i name="HFSCREENC">      0.00000000</i>
   <i type="int" name="NBANDSGWLOW">     0</i>
  </separator>
  <separator name="vdW DFT" >
   <i type="logical" name="LUSE_VDW"> F  </i>
   <i name="Zab_VDW">     -0.84910000</i>
   <i name="PARAM1">      0.12340000</i>
   <i name="PARAM2">      1.00000000</i>
   <i name="PARAM3">      0.00000000</i>
  </separator>
  <separator name="model GW" >
   <i type="int" name="MODEL_GW">     0</i>
   <i name="MODEL_EPS0">     87.27272727</i>
   <i name="MODEL_ALPHA">      1.00000000</i>
  </separator>
  <separator name="linear response parameters" >
   <i type="logical" name="LEPSILON"> F  </i>
   <i type="logical" name="LRPA"> F  </i>
   <i type="logical" name="LNABLA"> F  </i>
   <i type="logical" name="LVEL"> F  </i>
   <i type="int" name="KINTER">     0</i>
   <i name="CSHIFT">      0.10000000</i>
   <i name="OMEGAMAX">     -1.00000000</i>
   <i name="DEG_THRESHOLD">      0.00200000</i>
  </separator>
  <separator name="orbital magnetization" >
   <i type="logical" name="NUCIND"> F  </i>
   <v name="MAGPOS">      0.00000000      0.00000000      0.00000000</v>
   <i type="logical" name="LNICSALL"> T  </i>
   <i type="logical" name="ORBITALMAG"> F  </i>
   <i type="logical" name="LMAGBLOCH"> F  </i>
   <i type="logical" name="LCHIMAG"> F  </i>
   <i type="logical" name="LGAUGE"> T  </i>
   <i type="int" name="MAGATOM">     0</i>
   <v name="MAGDIPOL">      0.00000000      0.00000000      0.00000000</v>
   <v name="AVECCONST">      0.00000000      0.00000000      0.00000000</v>
  </separator>
  <separator name="response functions" >
   <i type="logical" name="LADDER"> F  </i>
   <i type="logical" name="LFXC"> F  </i>
   <i type="logical" name="LHARTREE"> T  </i>
   <i type="int" name="IBSE">     0</i>
   <i type="logical" name="LTCTE"> F  </i>
   <i type="logical" name="LTETE"> F  </i>
   <i type="logical" name="LTRIPLET"> F  </i>
   <i type="logical" name="LFXCEPS"> F  </i>
   <i type="logical" name="LFXHEG"> F  </i>
   <i type="logical" name="L2ORDER"> F  </i>
   <i type="logical" name="LUSEW"> F  </i>
   <i name="ENCUTGW">     -2.00000000</i>
   <i name="ENCUTGWSOFT">     -2.00000000</i>
   <i name="ENCUTLF">     -1.00000000</i>
   <i type="int" name="LMAXMP2">    -1</i>
   <i name="SCISSOR">      0.00000000</i>
   <i type="int" name="NOMEGA">     0</i>
   <i type="int" name="NOMEGAR">     0</i>
   <i type="int" name="NBANDSGW">    -1</i>
   <i type="int" name="NBANDSO">    -1</i>
   <i type="int" name="NBANDSV">    -1</i>
   <i type="int" name="NELM">     1</i>
   <i type="int" name="DIM">     3</i>
   <i type="int" name="ANTIRES">     0</i>
   <i name="OMEGAMAX">    -30.00000000</i>
   <i name="OMEGAMIN">    -30.00000000</i>
   <i name="OMEGATL">   -200.00000000</i>
   <i type="int" name="OMEGAGRID">     0</i>
   <i name="CSHIFT">     -0.10000000</i>
   <i type="logical" name="SELFENERGY"> F  </i>
   <i type="logical" name="LSPECTRAL"> F  </i>
   <i type="logical" name="ODDONLYGW"> F  </i>
   <i type="logical" name="EVENONLYGW"> F  </i>
   <i type="int" name="NKREDLFX">     1</i>
   <i type="int" name="NKREDLFY">     1</i>
   <i type="int" name="NKREDLFZ">     1</i>
   <i type="int" name="MAXMEM">  1800</i>
   <i type="int" name="TELESCOPE">     0</i>
   <i type="int" name="TAUPAR">     1</i>
  </separator>
  <separator name="External order field" >
   <i name="OFIELD_KAPPA">      0.00000000</i>
   <v name="OFIELD_K">      0.00000000      0.00000000      0.00000000</v>
   <i name="OFIELD_Q6_NEAR">      0.00000000</i>
   <i name="OFIELD_Q6_FAR">      0.00000000</i>
   <i name="OFIELD_A">      0.00000000</i>
  </separator>
 </parameters>
 <atominfo>
  <atoms>      55 </atoms>
  <types>       6 </types>
  <array name="atoms" >
   <dimension dim="1">ion</dimension>
   <field type="string">element</field>
   <field type="int">atomtype</field>
   <set>
    <rc><c>C </c><c>   1</c></rc>
    <rc><c>C </c><c>   2</c></rc>
    <rc><c>C </c><c>   2</c></rc>
    <rc><c>C </c><c>   2</c></rc>
    <rc><c>C </c><c>   2</c></rc>
    <rc><c>C </c><c>   2</c></rc>
    <rc><c>C </c><c>   2</c></rc>
    <rc><c>C </c><c>   2</c></rc>
    <rc><c>C </c><c>   2</c></rc>
    <rc><c>C </c><c>   2</c></rc>
    <rc><c>C </c><c>   2</c></rc>
    <rc><c>C </c><c>   2</c></rc>
    <rc><c>C </c><c>   2</c></rc>
    <rc><c>C </c><c>   2</c></rc>
    <rc><c>C </c><c>   2</c></rc>
    <rc><c>C </c><c>   2</c></rc>
    <rc><c>C </c><c>   2</c></rc>
    <rc><c>C </c><c>   2</c></rc>
    <rc><c>C </c><c>   2</c></rc>
    <rc><c>C </c><c>   2</c></rc>
    <rc><c>C </c><c>   2</c></rc>
    <rc><c>C </c><c>   2</c></rc>
    <rc><c>C </c><c>   2</c></rc>
    <rc><c>C </c><c>   2</c></rc>
    <rc><c>C </c><c>   2</c></rc>
    <rc><c>H </c><c>   3</c></rc>
    <rc><c>H </c><c>   3</c></rc>
    <rc><c>H </c><c>   3</c></rc>
    <rc><c>H </c><c>   3</c></rc>
    <rc><c>H </c><c>   3</c></rc>
    <rc><c>H </c><c>   3</c></rc>
    <rc><c>H </c><c>   3</c></rc>
    <rc><c>H </c><c>   3</c></rc>
    <rc><c>H </c><c>   3</c></rc>
    <rc><c>H </c><c>   3</c></rc>
    <rc><c>H </c><c>   3</c></rc>
    <rc><c>H </c><c>   3</c></rc>
    <rc><c>H </c><c>   3</c></rc>
    <rc><c>H </c><c>   3</c></rc>
    <rc><c>H </c><c>   3</c></rc>
    <rc><c>H </c><c>   3</c></rc>
    <rc><c>H </c><c>   3</c></rc>
    <rc><c>H </c><c>   3</c></rc>
    <rc><c>H </c><c>   3</c></rc>
    <rc><c>H </c><c>   3</c></rc>
    <rc><c>H </c><c>   3</c></rc>
    <rc><c>H </c><c>   3</c></rc>
    <rc><c>H </c><c>   3</c></rc>
    <rc><c>N </c><c>   4</c></rc>
    <rc><c>N </c><c>   4</c></rc>
    <rc><c>N </c><c>   4</c></rc>
    <rc><c>N </c><c>   4</c></rc>
    <rc><c>N </c><c>   4</c></rc>
    <rc><c>O </c><c>   5</c></rc>
    <rc><c>Ru</c><c>   6</c></rc>
   </set>
  </array>
  <array name="atomtypes" >
   <dimension dim="1">type</dimension>
   <field type="int">atomspertype</field>
   <field type="string">element</field>
   <field>mass</field>
   <field>valence</field>
   <field type="string">pseudopotential</field>
   <set>
    <rc><c>   1</c><c>C </c><c>     12.01100000</c><c>      4.50000000</c><c>  PAW_PBE C_h 06Feb2004                 </c></rc>
    <rc><c>  24</c><c>C </c><c>     12.01100000</c><c>      4.00000000</c><c>  PAW_PBE C_h 06Feb2004                 </c></rc>
    <rc><c>  23</c><c>H </c><c>      1.00000000</c><c>      1.00000000</c><c>  PAW_PBE H 15Jun2001                   </c></rc>
    <rc><c>   5</c><c>N </c><c>     14.00100000</c><c>      5.00000000</c><c>  PAW_PBE N_h 06Feb2004                 </c></rc>
    <rc><c>   1</c><c>O </c><c>     16.00000000</c><c>      6.00000000</c><c>  PAW_PBE O_h 06Feb2004                 </c></rc>
    <rc><c>   1</c><c>Ru</c><c>    101.07000000</c><c>     14.00000000</c><c>  PAW_PBE Ru_pv 28Jan2005               </c></rc>
   </set>
  </array>
 </atominfo>
 <structure name="initialpos" >
  <crystal>
   <varray name="basis" >
    <v>      20.00000000       0.00000000       0.00000000 </v>
    <v>       0.00000000      20.00000000       0.00000000 </v>
    <v>       0.00000000       0.00000000      20.00000000 </v>
   </varray>
   <i name="volume">   8000.00000000 </i>
   <varray name="rec_basis" >
    <v>       0.05000000       0.00000000       0.00000000 </v>
    <v>       0.00000000       0.05000000       0.00000000 </v>
    <v>       0.00000000       0.00000000       0.05000000 </v>
   </varray>
  </crystal>
  <varray name="positions" >
   <v>       0.60227374       0.41933300       0.60593616 </v>
   <v>       0.43793752       0.56561110       0.32757008 </v>
   <v>       0.45581208       0.52423376       0.38051465 </v>
   <v>       0.47372925       0.61530131       0.44986522 </v>
   <v>       0.45595175       0.65963312       0.39935201 </v>
   <v>       0.43785737       0.63472201       0.33675972 </v>
   <v>       0.52307882       0.32955005       0.67474498 </v>
   <v>       0.49710163       0.37190466       0.62618823 </v>
   <v>       0.29334713       0.47671938       0.56830116 </v>
   <v>       0.63096398       0.37761922       0.65422416 </v>
   <v>       0.73964927       0.52855915       0.53463181 </v>
   <v>       0.70082162       0.56612858       0.49044049 </v>
   <v>       0.63257913       0.55363620       0.48652424 </v>
   <v>       0.63952130       0.46927713       0.56732841 </v>
   <v>       0.70843899       0.47974495       0.57314689 </v>
   <v>       0.59134754       0.33224398       0.68903016 </v>
   <v>       0.36211554       0.48866484       0.56417415 </v>
   <v>       0.40790931       0.62211625       0.69058213 </v>
   <v>       0.47619960       0.62606623       0.67660612 </v>
   <v>       0.50295190       0.58590820       0.62668073 </v>
   <v>       0.39825425       0.53800137       0.60426081 </v>
   <v>       0.36904589       0.57756069       0.65398228 </v>
   <v>       0.37289802       0.40579857       0.48223443 </v>
   <v>       0.30486503       0.39173492       0.48443166 </v>
   <v>       0.26422003       0.42785518       0.52821594 </v>
   <v>       0.48989745       0.29510618       0.70074864 </v>
   <v>       0.61334240       0.29968355       0.72673159 </v>
   <v>       0.68424189       0.38076917       0.66478776 </v>
   <v>       0.54225374       0.36233861       0.46129841 </v>
   <v>       0.31579090       0.57306911       0.66420366 </v>
   <v>       0.44416348       0.37118871       0.61364770 </v>
   <v>       0.42392665       0.66833230       0.29622671 </v>
   <v>       0.45642762       0.71313270       0.40950260 </v>
   <v>       0.48809132       0.63358802       0.49907234 </v>
   <v>       0.56912778       0.41808713       0.41480476 </v>
   <v>       0.73767440       0.44963919       0.60776512 </v>
   <v>       0.72277620       0.60481012       0.45904817 </v>
   <v>       0.45570253       0.47012894       0.37468790 </v>
   <v>       0.40614333       0.37888556       0.44852541 </v>
   <v>       0.28443799       0.35306162       0.45202062 </v>
   <v>       0.79326502       0.53703787       0.53892527 </v>
   <v>       0.55589708       0.58769132       0.61440612 </v>
   <v>       0.42412006       0.54328620       0.27986105 </v>
   <v>       0.50894741       0.65984570       0.70400156 </v>
   <v>       0.26265982       0.50568523       0.60265428 </v>
   <v>       0.21072272       0.41813760       0.53105039 </v>
   <v>       0.60090654       0.58197914       0.45254259 </v>
   <v>       0.38544357       0.65296704       0.72941133 </v>
   <v>       0.47424490       0.54794204       0.44140236 </v>
   <v>       0.40180479       0.45306079       0.52108436 </v>
   <v>       0.53520702       0.41608490       0.59173240 </v>
   <v>       0.46544808       0.54254992       0.59041194 </v>
   <v>       0.60138410       0.50650621       0.52397638 </v>
   <v>       0.53073984       0.40562607       0.44215451 </v>
   <v>       0.50088568       0.48087016       0.51934246 </v>
  </varray>
  <varray name="selective"  type="logical" >
   <v type="logical" >  T  T  T </v>
   <v type="logical" >  T  T  T </v>
   <v type="logical" >  T  T  T </v>
   <v type="logical" >  T  T  T </v>
   <v type="logical" >  T  T  T </v>
   <v type="logical" >  T  T  T </v>
   <v type="logical" >  T  T  T </v>
   <v type="logical" >  T  T  T </v>
   <v type="logical" >  T  T  T </v>
   <v type="logical" >  T  T  T </v>
   <v type="logical" >  T  T  T </v>
   <v type="logical" >  T  T  T </v>
   <v type="logical" >  T  T  T </v>
   <v type="logical" >  T  T  T </v>
   <v type="logical" >  T  T  T </v>
   <v type="logical" >  T  T  T </v>
   <v type="logical" >  T  T  T </v>
   <v type="logical" >  T  T  T </v>
   <v type="logical" >  T  T  T </v>
   <v type="logical" >  T  T  T </v>
   <v type="logical" >  T  T  T </v>
   <v type="logical" >  T  T  T </v>
   <v type="logical" >  T  T  T </v>
   <v type="logical" >  T  T  T </v>
   <v type="logical" >  T  T  T </v>
   <v type="logical" >  T  T  T </v>
   <v type="logical" >  T  T  T </v>
   <v type="logical" >  T  T  T </v>
   <v type="logical" >  T  T  T </v>
   <v type="logical" >  T  T  T </v>
   <v type="logical" >  T  T  T </v>
   <v type="logical" >  T  T  T </v>
   <v type="logical" >  T  T  T </v>
   <v type="logical" >  T  T  T </v>
   <v type="logical" >  T  T  T </v>
   <v type="logical" >  T  T  T </v>
   <v type="logical" >  T  T  T </v>
   <v type="logical" >  T  T  T </v>
   <v type="logical" >  T  T  T </v>
   <v type="logical" >  T  T  T </v>
   <v type="logical" >  T  T  T </v>
   <v type="logical" >  T  T  T </v>
   <v type="logical" >  T  T  T </v>
   <v type="logical" >  T  T  T </v>
   <v type="logical" >  T  T  T </v>
   <v type="logical" >  T  T  T </v>
   <v type="logical" >  T  T  T </v>
   <v type="logical" >  T  T  T </v>
   <v type="logical" >  T  T  T </v>
   <v type="logical" >  T  T  T </v>
   <v type="logical" >  T  T  T </v>
   <v type="logical" >  T  T  T </v>
   <v type="logical" >  T  T  T </v>
   <v type="logical" >  T  T  T </v>
   <v type="logical" >  T  T  T </v>
  </varray>
  <nose>
   <v>      -3.00000000       0.00000000       0.00010000       0.00010000 </v>
  </nose>
 </structure>
 <calculation>
  <scstep>
   <time name="dav">   14.78   15.72</time>
   <time name="total">   22.38   23.35</time>
   <energy>
    <i name="alphaZ">     12.91687988 </i>
    <i name="ewald">  23333.98470079 </i>
    <i name="hartreedc"> -28935.69449433 </i>
    <i name="XCdc">    401.01519941 </i>
    <i name="pawpsdc">   5890.45591622 </i>
    <i name="pawaedc">  -5710.10246236 </i>
    <i name="eentropy">     -0.00047510 </i>
    <i name="bandstr">  -1675.00880546 </i>
    <i name="atom">   7593.39991119 </i>
    <i name="e_fr_energy">    910.96637023 </i>
    <i name="e_wo_entrp">    910.96684534 </i>
    <i name="e_0_energy">    910.96660778 </i>
   </energy>
  </scstep>
  <scstep>
   <time name="dav">   19.16   20.24</time>
   <time name="total">   19.17   20.26</time>
   <energy>
    <i name="e_fr_energy">    -69.42559200 </i>
    <i name="e_wo_entrp">    -69.42559200 </i>
    <i name="e_0_energy">    -69.42559200 </i>
   </energy>
  </scstep>
  <scstep>
   <time name="dav">   15.97   16.91</time>
   <time name="total">   15.99   16.92</time>
   <energy>
    <i name="e_fr_energy">   -391.91674596 </i>
    <i name="e_wo_entrp">   -391.91674596 </i>
    <i name="e_0_energy">   -391.91674596 </i>
   </energy>
  </scstep>
  <scstep>
   <time name="dav">   12.72   13.41</time>
   <time name="total">   12.73   13.42</time>
   <energy>
    <i name="e_fr_energy">   -410.35521168 </i>
    <i name="e_wo_entrp">   -410.35521168 </i>
    <i name="e_0_energy">   -410.35521168 </i>
   </energy>
  </scstep>
  <scstep>
   <time name="dav">   17.06   18.04</time>
   <time name="total">   22.36   23.36</time>
   <energy>
    <i name="e_fr_energy">   -410.62210845 </i>
    <i name="e_wo_entrp">   -410.62210845 </i>
    <i name="e_0_energy">   -410.62210845 </i>
   </energy>
  </scstep>
  <scstep>
   <time name="dav">   10.75   11.45</time>
   <time name="total">   23.51   24.26</time>
   <energy>
    <i name="e_fr_energy">   -391.50449999 </i>
    <i name="e_wo_entrp">   -391.50449999 </i>
    <i name="e_0_energy">   -391.50449999 </i>
   </energy>
  </scstep>
  <scstep>
   <time name="dav">   15.16   16.47</time>
   <time name="total">   27.86   29.26</time>
   <energy>
    <i name="e_fr_energy">   -381.86278881 </i>
    <i name="e_wo_entrp">   -381.86278881 </i>
    <i name="e_0_energy">   -381.86278881 </i>
   </energy>
  </scstep>
  <scstep>
   <time name="dav">   15.13   16.44</time>
   <time name="total">   27.82   29.19</time>
   <energy>
    <i name="e_fr_energy">   -378.03369820 </i>
    <i name="e_wo_entrp">   -378.03369820 </i>
    <i name="e_0_energy">   -378.03369820 </i>
   </energy>
  </scstep>
  <scstep>
   <time name="dav">   15.05   16.34</time>
   <time name="total">   27.72   29.16</time>
   <energy>
    <i name="e_fr_energy">   -377.06513662 </i>
    <i name="e_wo_entrp">   -377.06513662 </i>
    <i name="e_0_energy">   -377.06513662 </i>
   </energy>
  </scstep>
  <scstep>
   <time name="dav">   15.13   16.45</time>
   <time name="total">   27.92   29.31</time>
   <energy>
    <i name="e_fr_energy">   -377.03827376 </i>
    <i name="e_wo_entrp">   -377.03827376 </i>
    <i name="e_0_energy">   -377.03827376 </i>
   </energy>
  </scstep>
  <scstep>
   <time name="dav">   15.04   16.35</time>
   <time name="total">   27.84   29.21</time>
   <energy>
    <i name="e_fr_energy">   -376.89131039 </i>
    <i name="e_wo_entrp">   -376.89131039 </i>
    <i name="e_0_energy">   -376.89131039 </i>
   </energy>
  </scstep>
  <scstep>
   <time name="dav">   15.13   16.45</time>
   <time name="total">   28.07   29.47</time>
   <energy>
    <i name="e_fr_energy">   -376.82001435 </i>
    <i name="e_wo_entrp">   -376.82001435 </i>
    <i name="e_0_energy">   -376.82001435 </i>
   </energy>
  </scstep>
  <scstep>
   <time name="dav">   15.04   16.34</time>
   <time name="total">   27.72   29.10</time>
   <energy>
    <i name="e_fr_energy">   -376.79586773 </i>
    <i name="e_wo_entrp">   -376.79586773 </i>
    <i name="e_0_energy">   -376.79586773 </i>
   </energy>
  </scstep>
  <scstep>
   <time name="dav">   15.12   16.44</time>
   <time name="total">   28.00   29.38</time>
   <energy>
    <i name="e_fr_energy">   -376.78969289 </i>
    <i name="e_wo_entrp">   -376.78969289 </i>
    <i name="e_0_energy">   -376.78969289 </i>
   </energy>
  </scstep>
  <scstep>
   <time name="dav">   15.06   16.35</time>
   <time name="total">   27.88   29.25</time>
   <energy>
    <i name="e_fr_energy">   -376.79359999 </i>
    <i name="e_wo_entrp">   -376.79359999 </i>
    <i name="e_0_energy">   -376.79359999 </i>
   </energy>
  </scstep>
  <scstep>
   <time name="dav">   15.03   16.34</time>
   <time name="total">   27.96   29.33</time>
   <energy>
    <i name="e_fr_energy">   -376.80173946 </i>
    <i name="e_wo_entrp">   -376.80173946 </i>
    <i name="e_0_energy">   -376.80173946 </i>
   </energy>
  </scstep>
  <scstep>
   <time name="dav">   15.04   16.35</time>
   <time name="total">   27.88   29.24</time>
   <energy>
    <i name="e_fr_energy">   -376.80715895 </i>
    <i name="e_wo_entrp">   -376.80715895 </i>
    <i name="e_0_energy">   -376.80715895 </i>
   </energy>
  </scstep>
  <scstep>
   <time name="dav">   15.01   16.34</time>
   <time name="total">   28.05   29.46</time>
   <energy>
    <i name="e_fr_energy">   -376.81219629 </i>
    <i name="e_wo_entrp">   -376.81219629 </i>
    <i name="e_0_energy">   -376.81219629 </i>
   </energy>
  </scstep>
  <scstep>
   <time name="dav">   15.03   16.35</time>
   <time name="total">   27.84   29.22</time>
   <energy>
    <i name="e_fr_energy">   -376.81649691 </i>
    <i name="e_wo_entrp">   -376.81649691 </i>
    <i name="e_0_energy">   -376.81649691 </i>
   </energy>
  </scstep>
  <scstep>
   <time name="dav">   15.05   16.35</time>
   <time name="total">   27.98   29.37</time>
   <energy>
    <i name="e_fr_energy">   -376.81879917 </i>
    <i name="e_wo_entrp">   -376.81879917 </i>
    <i name="e_0_energy">   -376.81879917 </i>
   </energy>
  </scstep>
  <scstep>
   <time name="dav">   15.01   16.33</time>
   <time name="total">   27.97   29.39</time>
   <energy>
    <i name="e_fr_energy">   -376.82053789 </i>
    <i name="e_wo_entrp">   -376.82053789 </i>
    <i name="e_0_energy">   -376.82053789 </i>
   </energy>
  </scstep>
  <scstep>
   <time name="dav">   15.03   16.34</time>
   <time name="total">   27.93   29.46</time>
   <energy>
    <i name="e_fr_energy">   -376.82192055 </i>
    <i name="e_wo_entrp">   -376.82192055 </i>
    <i name="e_0_energy">   -376.82192055 </i>
   </energy>
  </scstep>
  <scstep>
   <time name="dav">   13.12   14.30</time>
   <time name="total">   26.21   27.42</time>
   <energy>
    <i name="e_fr_energy">   -376.82252421 </i>
    <i name="e_wo_entrp">   -376.82252421 </i>
    <i name="e_0_energy">   -376.82252421 </i>
   </energy>
  </scstep>
  <scstep>
   <time name="dav">   13.29   14.47</time>
   <time name="total">   26.11   27.33</time>
   <energy>
    <i name="e_fr_energy">   -376.82293713 </i>
    <i name="e_wo_entrp">   -376.82293713 </i>
    <i name="e_0_energy">   -376.82293713 </i>
   </energy>
  </scstep>
  <scstep>
   <time name="dav">   13.13   14.31</time>
   <time name="total">   26.01   27.24</time>
   <energy>
    <i name="e_fr_energy">   -376.82315667 </i>
    <i name="e_wo_entrp">   -376.82315667 </i>
    <i name="e_0_energy">   -376.82315667 </i>
   </energy>
  </scstep>
  <scstep>
   <time name="dav">   13.28   14.41</time>
   <time name="total">   26.12   27.31</time>
   <energy>
    <i name="e_fr_energy">   -376.82329758 </i>
    <i name="e_wo_entrp">   -376.82329758 </i>
    <i name="e_0_energy">   -376.82329758 </i>
   </energy>
  </scstep>
  <scstep>
   <time name="dav">   13.27   14.43</time>
   <time name="total">   26.16   27.34</time>
   <energy>
    <i name="e_fr_energy">   -376.82336264 </i>
    <i name="e_wo_entrp">   -376.82336264 </i>
    <i name="e_0_energy">   -376.82336264 </i>
   </energy>
  </scstep>
  <scstep>
   <time name="dav">   13.39   14.57</time>
   <time name="total">   26.33   27.55</time>
   <energy>
    <i name="e_fr_energy">   -376.82339317 </i>
    <i name="e_wo_entrp">   -376.82339317 </i>
    <i name="e_0_energy">   -376.82339317 </i>
   </energy>
  </scstep>
  <scstep>
   <time name="dav">   13.19   14.36</time>
   <time name="total">   26.12   27.36</time>
   <energy>
    <i name="e_fr_energy">   -376.82341416 </i>
    <i name="e_wo_entrp">   -376.82341416 </i>
    <i name="e_0_energy">   -376.82341416 </i>
   </energy>
  </scstep>
  <scstep>
   <time name="dav">   13.10   14.28</time>
   <time name="total">   20.63   21.86</time>
   <energy>
    <i name="alphaZ">     12.91687988 </i>
    <i name="ewald">  23333.98470079 </i>
    <i name="hartreedc"> -29166.52344730 </i>
    <i name="XCdc">    424.19659079 </i>
    <i name="pawpsdc">  81090.08390944 </i>
    <i name="pawaedc"> -80916.89132224 </i>
    <i name="eentropy">     -0.00000000 </i>
    <i name="bandstr">  -2747.99064493 </i>
    <i name="atom">   7593.39991119 </i>
    <i name="e_fr_energy">   -376.82342237 </i>
    <i name="e_wo_entrp">   -376.82342237 </i>
    <i name="e_0_energy">   -376.82342237 </i>
   </energy>
  </scstep>
  <structure>
   <crystal>
    <varray name="basis" >
     <v>      20.00000000       0.00000000       0.00000000 </v>
     <v>       0.00000000      20.00000000       0.00000000 </v>
     <v>       0.00000000       0.00000000      20.00000000 </v>
    </varray>
    <i name="volume">   8000.00000000 </i>
    <varray name="rec_basis" >
     <v>       0.05000000       0.00000000       0.00000000 </v>
     <v>       0.00000000       0.05000000       0.00000000 </v>
     <v>       0.00000000       0.00000000       0.05000000 </v>
    </varray>
   </crystal>
   <varray name="positions" >
    <v>       0.60227374       0.41933300       0.60593616 </v>
    <v>       0.43793752       0.56561110       0.32757008 </v>
    <v>       0.45581208       0.52423376       0.38051465 </v>
    <v>       0.47372925       0.61530131       0.44986522 </v>
    <v>       0.45595175       0.65963312       0.39935201 </v>
    <v>       0.43785737       0.63472201       0.33675972 </v>
    <v>       0.52307882       0.32955005       0.67474498 </v>
    <v>       0.49710163       0.37190466       0.62618823 </v>
    <v>       0.29334713       0.47671938       0.56830116 </v>
    <v>       0.63096398       0.37761922       0.65422416 </v>
    <v>       0.73964927       0.52855915       0.53463181 </v>
    <v>       0.70082162       0.56612858       0.49044049 </v>
    <v>       0.63257913       0.55363620       0.48652424 </v>
    <v>       0.63952130       0.46927713       0.56732841 </v>
    <v>       0.70843899       0.47974495       0.57314689 </v>
    <v>       0.59134754       0.33224398       0.68903016 </v>
    <v>       0.36211554       0.48866484       0.56417415 </v>
    <v>       0.40790931       0.62211625       0.69058213 </v>
    <v>       0.47619960       0.62606623       0.67660612 </v>
    <v>       0.50295190       0.58590820       0.62668073 </v>
    <v>       0.39825425       0.53800137       0.60426081 </v>
    <v>       0.36904589       0.57756069       0.65398228 </v>
    <v>       0.37289802       0.40579857       0.48223443 </v>
    <v>       0.30486503       0.39173492       0.48443166 </v>
    <v>       0.26422003       0.42785518       0.52821594 </v>
    <v>       0.48989745       0.29510618       0.70074864 </v>
    <v>       0.61334240       0.29968355       0.72673159 </v>
    <v>       0.68424189       0.38076917       0.66478776 </v>
    <v>       0.54225374       0.36233861       0.46129841 </v>
    <v>       0.31579090       0.57306911       0.66420366 </v>
    <v>       0.44416348       0.37118871       0.61364770 </v>
    <v>       0.42392665       0.66833230       0.29622671 </v>
    <v>       0.45642762       0.71313270       0.40950260 </v>
    <v>       0.48809132       0.63358802       0.49907234 </v>
    <v>       0.56912778       0.41808713       0.41480476 </v>
    <v>       0.73767440       0.44963919       0.60776512 </v>
    <v>       0.72277620       0.60481012       0.45904817 </v>
    <v>       0.45570253       0.47012894       0.37468790 </v>
    <v>       0.40614333       0.37888556       0.44852541 </v>
    <v>       0.28443799       0.35306162       0.45202062 </v>
    <v>       0.79326502       0.53703787       0.53892527 </v>
    <v>       0.55589708       0.58769132       0.61440612 </v>
    <v>       0.42412006       0.54328620       0.27986105 </v>
    <v>       0.50894741       0.65984570       0.70400156 </v>
    <v>       0.26265982       0.50568523       0.60265428 </v>
    <v>       0.21072272       0.41813760       0.53105039 </v>
    <v>       0.60090654       0.58197914       0.45254259 </v>
    <v>       0.38544357       0.65296704       0.72941133 </v>
    <v>       0.47424490       0.54794204       0.44140236 </v>
    <v>       0.40180479       0.45306079       0.52108436 </v>
    <v>       0.53520702       0.41608490       0.59173240 </v>
    <v>       0.46544808       0.54254992       0.59041194 </v>
    <v>       0.60138410       0.50650621       0.52397638 </v>
    <v>       0.53073984       0.40562607       0.44215451 </v>
    <v>       0.50088568       0.48087016       0.51934246 </v>
   </varray>
  </structure>
  <varray name="forces" >
   <v>       0.32378036      -0.13789264       0.21270388 </v>
   <v>       0.00321673      -0.00606068       0.00517971 </v>
   <v>       0.00035794      -0.06873532       0.00924034 </v>
   <v>       0.01974571       0.01545822       0.05306579 </v>
   <v>       0.00775764      -0.00052184       0.00770963 </v>
   <v>       0.00138911      -0.00493378       0.00783242 </v>
   <v>      -0.00901348       0.03854551      -0.03289996 </v>
   <v>       0.14827749      -0.04712032       0.11384092 </v>
   <v>       0.00717385       0.01252434       0.01249084 </v>
   <v>      -0.47088182       0.38669197      -0.48352133 </v>
   <v>      -0.04846144       0.01938503      -0.02954061 </v>
   <v>       0.01730423      -0.01509847       0.02123700 </v>
   <v>       0.02632103      -0.01533459       0.02556008 </v>
   <v>      -0.24166599      -0.17781568       0.12495676 </v>
   <v>      -0.07388514      -0.22256643       0.19545238 </v>
   <v>       0.04341833       0.06573433      -0.05606757 </v>
   <v>       0.00717738      -0.00677953      -0.02394085 </v>
   <v>       0.02161818      -0.00924993      -0.01986023 </v>
   <v>       0.00771910       0.01185199       0.01709661 </v>
   <v>      -0.00170982      -0.02239050      -0.03481393 </v>
   <v>       0.02357902      -0.00682677      -0.02686164 </v>
   <v>      -0.01009100      -0.00375070      -0.00420077 </v>
   <v>       0.06006976       0.00210009      -0.00279168 </v>
   <v>      -0.02643620      -0.00196355       0.00905845 </v>
   <v>       0.02105880      -0.01107481      -0.01640115 </v>
   <v>      -0.00243992      -0.01550503       0.01154621 </v>
   <v>       0.05712868       0.03583064      -0.02278514 </v>
   <v>      -0.01750015       0.11801842      -0.12029313 </v>
   <v>      -0.02039673      -0.02035603      -0.07472473 </v>
   <v>      -0.00066647       0.00658119      -0.00181993 </v>
   <v>       0.04199566       0.05895841      -0.05700307 </v>
   <v>      -0.00400760       0.00533736      -0.00125504 </v>
   <v>       0.00443969      -0.00111614       0.00416762 </v>
   <v>      -0.00374288       0.01727791      -0.00440961 </v>
   <v>      -0.00399305      -0.01113627      -0.05807464 </v>
   <v>       0.04863529       0.01555609      -0.00454528 </v>
   <v>       0.00817265       0.00209912      -0.00490402 </v>
   <v>      -0.01476863      -0.00100114      -0.01695005 </v>
   <v>      -0.00664741      -0.00670412      -0.01349633 </v>
   <v>       0.00081254      -0.00547212      -0.00354930 </v>
   <v>      -0.00405101      -0.01751258       0.01795645 </v>
   <v>       0.00611269       0.02197067       0.00408391 </v>
   <v>      -0.00377606      -0.00425498       0.00658024 </v>
   <v>       0.00173290       0.00466356      -0.00079122 </v>
   <v>      -0.00317676      -0.00120239      -0.00290089 </v>
   <v>      -0.00561774      -0.00076747      -0.00267157 </v>
   <v>      -0.01419219      -0.01844678       0.01148791 </v>
   <v>      -0.00294734       0.00861219       0.00661181 </v>
   <v>      -0.03523749       0.01871690       0.01639510 </v>
   <v>      -0.12745188      -0.03390043       0.00859078 </v>
   <v>       0.22192120       0.32261899      -0.21064535 </v>
   <v>      -0.11463679       0.15305425       0.15405639 </v>
   <v>      -0.11702666      -0.24203895       0.19171901 </v>
   <v>       0.01771524       0.04411198       0.05521442 </v>
   <v>       0.23579045      -0.24816921       0.02788439 </v>
  </varray>
  <varray name="stress" >
   <v>      -2.86001232      -0.06774836      -0.01598679 </v>
   <v>      -0.06774836      -2.96260529       0.41724752 </v>
   <v>      -0.01598681       0.41724751      -2.96308973 </v>
  </varray>
  <energy>
   <i name="e_fr_energy">   -376.82342237 </i>
   <i name="e_wo_entrp">   -376.82342237 </i>
   <i name="e_0_energy">     -0.00000000 </i>
  </energy>
  <time name="totalsc"> 1008.60 1048.36</time>
  <eigenvalues>
   <array>
    <dimension dim="1">band</dimension>
    <dimension dim="2">kpoint</dimension>
    <dimension dim="3">spin</dimension>
    <field>eigene</field>
    <field>occ</field>
    <set>
     <set comment="spin 1">
      <set comment="kpoint 1">
       <r>  -49.2000    1.0000 </r>
       <r>  -49.1187    1.0000 </r>
       <r>  -48.8215    1.0000 </r>
       <r>  -29.2645    1.0000 </r>
       <r>  -28.0776    1.0000 </r>
       <r>  -26.9211    1.0000 </r>
       <r>  -26.7585    1.0000 </r>
       <r>  -26.2000    1.0000 </r>
       <r>  -26.1727    1.0000 </r>
       <r>  -23.6096    1.0000 </r>
       <r>  -23.2571    1.0000 </r>
       <r>  -22.6893    1.0000 </r>
       <r>  -22.4644    1.0000 </r>
       <r>  -22.3547    1.0000 </r>
       <r>  -22.2241    1.0000 </r>
       <r>  -22.0293    1.0000 </r>
       <r>  -21.5709    1.0000 </r>
       <r>  -21.1037    1.0000 </r>
       <r>  -20.8263    1.0000 </r>
       <r>  -19.6352    1.0000 </r>
       <r>  -19.3853    1.0000 </r>
       <r>  -18.7650    1.0000 </r>
       <r>  -18.4813    1.0000 </r>
       <r>  -18.2662    1.0000 </r>
       <r>  -18.0775    1.0000 </r>
       <r>  -17.8429    1.0000 </r>
       <r>  -17.6424    1.0000 </r>
       <r>  -17.6161    1.0000 </r>
       <r>  -17.3374    1.0000 </r>
       <r>  -16.9375    1.0000 </r>
       <r>  -16.6907    1.0000 </r>
       <r>  -15.9224    1.0000 </r>
       <r>  -15.7016    1.0000 </r>
       <r>  -15.2749    1.0000 </r>
       <r>  -15.2172    1.0000 </r>
       <r>  -14.8027    1.0000 </r>
       <r>  -14.7534    1.0000 </r>
       <r>  -14.7275    1.0000 </r>
       <r>  -14.4971    1.0000 </r>
       <r>  -14.3589    1.0000 </r>
       <r>  -14.1174    1.0000 </r>
       <r>  -14.0242    1.0000 </r>
       <r>  -13.9948    1.0000 </r>
       <r>  -13.9658    1.0000 </r>
       <r>  -13.8256    1.0000 </r>
       <r>  -13.5772    1.0000 </r>
       <r>  -13.4970    1.0000 </r>
       <r>  -13.3418    1.0000 </r>
       <r>  -13.2454    1.0000 </r>
       <r>  -13.2063    1.0000 </r>
       <r>  -13.0233    1.0000 </r>
       <r>  -12.9177    1.0000 </r>
       <r>  -12.7501    1.0000 </r>
       <r>  -12.7086    1.0000 </r>
       <r>  -12.5902    1.0000 </r>
       <r>  -12.3953    1.0000 </r>
       <r>  -12.2793    1.0000 </r>
       <r>  -12.2444    1.0000 </r>
       <r>  -12.1355    1.0000 </r>
       <r>  -11.9719    1.0000 </r>
       <r>  -11.6326    1.0000 </r>
       <r>  -11.6101    1.0000 </r>
       <r>  -11.3181    1.0000 </r>
       <r>  -11.2582    1.0000 </r>
       <r>  -11.1151    1.0000 </r>
       <r>  -10.8936    1.0000 </r>
       <r>  -10.7555    1.0000 </r>
       <r>  -10.6965    1.0000 </r>
       <r>  -10.6536    1.0000 </r>
       <r>  -10.4401    1.0000 </r>
       <r>  -10.1000    1.0000 </r>
       <r>  -10.0464    1.0000 </r>
       <r>   -9.9746    1.0000 </r>
       <r>   -9.8368    1.0000 </r>
       <r>   -9.7782    1.0000 </r>
       <r>   -9.7223    1.0000 </r>
       <r>   -9.3802    1.0000 </r>
       <r>   -9.0961    1.0000 </r>
       <r>   -8.7184    1.0000 </r>
       <r>   -8.4095    1.0000 </r>
       <r>   -7.5415    1.0000 </r>
       <r>   -7.3530    1.0000 </r>
       <r>   -7.2558    1.0000 </r>
       <r>   -5.8807    0.0000 </r>
       <r>   -4.9973    0.0000 </r>
       <r>   -4.8971    0.0000 </r>
       <r>   -4.4839    0.0000 </r>
       <r>   -4.1954    0.0000 </r>
       <r>   -4.1198    0.0000 </r>
       <r>   -3.9956    0.0000 </r>
       <r>   -3.9542    0.0000 </r>
       <r>   -3.6094    0.0000 </r>
       <r>   -3.4592    0.0000 </r>
       <r>   -3.2749    0.0000 </r>
       <r>   -2.9677    0.0000 </r>
       <r>   -2.7461    0.0000 </r>
       <r>   -1.8447    0.0000 </r>
       <r>   -1.7406    0.0000 </r>
       <r>   -1.6449    0.0000 </r>
       <r>   -1.3899    0.0000 </r>
       <r>   -1.2467    0.0000 </r>
       <r>   -1.1647    0.0000 </r>
       <r>   -1.0967    0.0000 </r>
       <r>   -1.0112    0.0000 </r>
       <r>   -0.9294    0.0000 </r>
       <r>   -0.7350    0.0000 </r>
       <r>   -0.6549    0.0000 </r>
       <r>   -0.6148    0.0000 </r>
       <r>   -0.5433    0.0000 </r>
       <r>   -0.4471    0.0000 </r>
       <r>   -0.4170    0.0000 </r>
       <r>   -0.3364    0.0000 </r>
       <r>   -0.2696    0.0000 </r>
       <r>   -0.1692    0.0000 </r>
       <r>   -0.0640    0.0000 </r>
       <r>    0.0021    0.0000 </r>
       <r>    0.0187    0.0000 </r>
       <r>    0.1012    0.0000 </r>
       <r>    0.1285    0.0000 </r>
       <r>    0.2070    0.0000 </r>
       <r>    0.2918    0.0000 </r>
       <r>    0.3933    0.0000 </r>
       <r>    0.4142    0.0000 </r>
       <r>    0.4680    0.0000 </r>
       <r>    0.5512    0.0000 </r>
       <r>    0.6055    0.0000 </r>
       <r>    0.6387    0.0000 </r>
       <r>    0.7067    0.0000 </r>
      </set>
     </set>
     <set comment="spin 2">
      <set comment="kpoint 1">
       <r>  -49.2000    1.0000 </r>
       <r>  -49.1187    1.0000 </r>
       <r>  -48.8215    1.0000 </r>
       <r>  -29.2645    1.0000 </r>
       <r>  -28.0776    1.0000 </r>
       <r>  -26.9211    1.0000 </r>
       <r>  -26.7585    1.0000 </r>
       <r>  -26.2000    1.0000 </r>
       <r>  -26.1727    1.0000 </r>
       <r>  -23.6096    1.0000 </r>
       <r>  -23.2571    1.0000 </r>
       <r>  -22.6893    1.0000 </r>
       <r>  -22.4644    1.0000 </r>
       <r>  -22.3547    1.0000 </r>
       <r>  -22.2241    1.0000 </r>
       <r>  -22.0293    1.0000 </r>
       <r>  -21.5709    1.0000 </r>
       <r>  -21.1037    1.0000 </r>
       <r>  -20.8263    1.0000 </r>
       <r>  -19.6352    1.0000 </r>
       <r>  -19.3853    1.0000 </r>
       <r>  -18.7650    1.0000 </r>
       <r>  -18.4813    1.0000 </r>
       <r>  -18.2662    1.0000 </r>
       <r>  -18.0775    1.0000 </r>
       <r>  -17.8429    1.0000 </r>
       <r>  -17.6424    1.0000 </r>
       <r>  -17.6161    1.0000 </r>
       <r>  -17.3374    1.0000 </r>
       <r>  -16.9375    1.0000 </r>
       <r>  -16.6907    1.0000 </r>
       <r>  -15.9224    1.0000 </r>
       <r>  -15.7016    1.0000 </r>
       <r>  -15.2749    1.0000 </r>
       <r>  -15.2172    1.0000 </r>
       <r>  -14.8027    1.0000 </r>
       <r>  -14.7534    1.0000 </r>
       <r>  -14.7275    1.0000 </r>
       <r>  -14.4971    1.0000 </r>
       <r>  -14.3589    1.0000 </r>
       <r>  -14.1174    1.0000 </r>
       <r>  -14.0242    1.0000 </r>
       <r>  -13.9948    1.0000 </r>
       <r>  -13.9658    1.0000 </r>
       <r>  -13.8256    1.0000 </r>
       <r>  -13.5772    1.0000 </r>
       <r>  -13.4970    1.0000 </r>
       <r>  -13.3418    1.0000 </r>
       <r>  -13.2454    1.0000 </r>
       <r>  -13.2063    1.0000 </r>
       <r>  -13.0233    1.0000 </r>
       <r>  -12.9177    1.0000 </r>
       <r>  -12.7501    1.0000 </r>
       <r>  -12.7086    1.0000 </r>
       <r>  -12.5902    1.0000 </r>
       <r>  -12.3953    1.0000 </r>
       <r>  -12.2793    1.0000 </r>
       <r>  -12.2444    1.0000 </r>
       <r>  -12.1355    1.0000 </r>
       <r>  -11.9719    1.0000 </r>
       <r>  -11.6326    1.0000 </r>
       <r>  -11.6101    1.0000 </r>
       <r>  -11.3181    1.0000 </r>
       <r>  -11.2582    1.0000 </r>
       <r>  -11.1151    1.0000 </r>
       <r>  -10.8936    1.0000 </r>
       <r>  -10.7555    1.0000 </r>
       <r>  -10.6965    1.0000 </r>
       <r>  -10.6536    1.0000 </r>
       <r>  -10.4401    1.0000 </r>
       <r>  -10.1000    1.0000 </r>
       <r>  -10.0464    1.0000 </r>
       <r>   -9.9746    1.0000 </r>
       <r>   -9.8368    1.0000 </r>
       <r>   -9.7782    1.0000 </r>
       <r>   -9.7223    1.0000 </r>
       <r>   -9.3802    1.0000 </r>
       <r>   -9.0961    1.0000 </r>
       <r>   -8.7184    1.0000 </r>
       <r>   -8.4095    1.0000 </r>
       <r>   -7.5415    1.0000 </r>
       <r>   -7.3530    1.0000 </r>
       <r>   -7.2558    1.0000 </r>
       <r>   -5.8807    0.0000 </r>
       <r>   -4.9973    0.0000 </r>
       <r>   -4.8971    0.0000 </r>
       <r>   -4.4839    0.0000 </r>
       <r>   -4.1954    0.0000 </r>
       <r>   -4.1198    0.0000 </r>
       <r>   -3.9956    0.0000 </r>
       <r>   -3.9542    0.0000 </r>
       <r>   -3.6094    0.0000 </r>
       <r>   -3.4592    0.0000 </r>
       <r>   -3.2749    0.0000 </r>
       <r>   -2.9677    0.0000 </r>
       <r>   -2.7461    0.0000 </r>
       <r>   -1.8447    0.0000 </r>
       <r>   -1.7406    0.0000 </r>
       <r>   -1.6449    0.0000 </r>
       <r>   -1.3899    0.0000 </r>
       <r>   -1.2467    0.0000 </r>
       <r>   -1.1647    0.0000 </r>
       <r>   -1.0967    0.0000 </r>
       <r>   -1.0112    0.0000 </r>
       <r>   -0.9294    0.0000 </r>
       <r>   -0.7350    0.0000 </r>
       <r>   -0.6549    0.0000 </r>
       <r>   -0.6148    0.0000 </r>
       <r>   -0.5433    0.0000 </r>
       <r>   -0.4471    0.0000 </r>
       <r>   -0.4170    0.0000 </r>
       <r>   -0.3364    0.0000 </r>
       <r>   -0.2696    0.0000 </r>
       <r>   -0.1692    0.0000 </r>
       <r>   -0.0640    0.0000 </r>
       <r>    0.0021    0.0000 </r>
       <r>    0.0187    0.0000 </r>
       <r>    0.1012    0.0000 </r>
       <r>    0.1285    0.0000 </r>
       <r>    0.2070    0.0000 </r>
       <r>    0.2918    0.0000 </r>
       <r>    0.3933    0.0000 </r>
       <r>    0.4142    0.0000 </r>
       <r>    0.4680    0.0000 </r>
       <r>    0.5512    0.0000 </r>
       <r>    0.6055    0.0000 </r>
       <r>    0.6387    0.0000 </r>
       <r>    0.7066    0.0000 </r>
      </set>
     </set>
    </set>
   </array>
  </eigenvalues>
  <separator name="orbital magnetization" >
   <v name="MAGDIPOLOUT">      0.00000000      0.00000000      0.00000000</v>
  </separator>
  <dos>
   <i name="efermi">     -7.18270514 </i>
   <total>
    <array>
     <dimension dim="1">gridpoints</dimension>
     <dimension dim="2">spin</dimension>
     <field>energy</field>
     <field>total</field>
     <field>integrated</field>
     <set>
      <set comment="spin 1">
       <r>   -51.6953     0.0000     0.0000 </r>
       <r>   -51.5123     0.0000     0.0000 </r>
       <r>   -51.3293     0.0000     0.0000 </r>
       <r>   -51.1463     0.0000     0.0000 </r>
       <r>   -50.9634     0.0000     0.0000 </r>
       <r>   -50.7804     0.0000     0.0000 </r>
       <r>   -50.5974     0.0000     0.0000 </r>
       <r>   -50.4144     0.0000     0.0000 </r>
       <r>   -50.2314     0.0000     0.0000 </r>
       <r>   -50.0484     0.0000     0.0000 </r>
       <r>   -49.8654     0.0000     0.0000 </r>
       <r>   -49.6824     0.0000     0.0000 </r>
       <r>   -49.4994     0.0000     0.0000 </r>
       <r>   -49.3164     0.0000     0.0000 </r>
       <r>   -49.1334    11.1334     2.0373 </r>
       <r>   -48.9505     0.0000     4.0000 </r>
       <r>   -48.7675    10.9295     6.0000 </r>
       <r>   -48.5845     0.0000     6.0000 </r>
       <r>   -48.4015     0.0000     6.0000 </r>
       <r>   -48.2185     0.0000     6.0000 </r>
       <r>   -48.0355     0.0000     6.0000 </r>
       <r>   -47.8525     0.0000     6.0000 </r>
       <r>   -47.6695     0.0000     6.0000 </r>
       <r>   -47.4865     0.0000     6.0000 </r>
       <r>   -47.3035     0.0000     6.0000 </r>
       <r>   -47.1205     0.0000     6.0000 </r>
       <r>   -46.9376     0.0000     6.0000 </r>
       <r>   -46.7546     0.0000     6.0000 </r>
       <r>   -46.5716     0.0000     6.0000 </r>
       <r>   -46.3886     0.0000     6.0000 </r>
       <r>   -46.2056     0.0000     6.0000 </r>
       <r>   -46.0226     0.0000     6.0000 </r>
       <r>   -45.8396     0.0000     6.0000 </r>
       <r>   -45.6566     0.0000     6.0000 </r>
       <r>   -45.4736     0.0000     6.0000 </r>
       <r>   -45.2906     0.0000     6.0000 </r>
       <r>   -45.1076     0.0000     6.0000 </r>
       <r>   -44.9246     0.0000     6.0000 </r>
       <r>   -44.7417     0.0000     6.0000 </r>
       <r>   -44.5587     0.0000     6.0000 </r>
       <r>   -44.3757     0.0000     6.0000 </r>
       <r>   -44.1927     0.0000     6.0000 </r>
       <r>   -44.0097     0.0000     6.0000 </r>
       <r>   -43.8267     0.0000     6.0000 </r>
       <r>   -43.6437     0.0000     6.0000 </r>
       <r>   -43.4607     0.0000     6.0000 </r>
       <r>   -43.2777     0.0000     6.0000 </r>
       <r>   -43.0947     0.0000     6.0000 </r>
       <r>   -42.9117     0.0000     6.0000 </r>
       <r>   -42.7288     0.0000     6.0000 </r>
       <r>   -42.5458     0.0000     6.0000 </r>
       <r>   -42.3628     0.0000     6.0000 </r>
       <r>   -42.1798     0.0000     6.0000 </r>
       <r>   -41.9968     0.0000     6.0000 </r>
       <r>   -41.8138     0.0000     6.0000 </r>
       <r>   -41.6308     0.0000     6.0000 </r>
       <r>   -41.4478     0.0000     6.0000 </r>
       <r>   -41.2648     0.0000     6.0000 </r>
       <r>   -41.0818     0.0000     6.0000 </r>
       <r>   -40.8988     0.0000     6.0000 </r>
       <r>   -40.7158     0.0000     6.0000 </r>
       <r>   -40.5329     0.0000     6.0000 </r>
       <r>   -40.3499     0.0000     6.0000 </r>
       <r>   -40.1669     0.0000     6.0000 </r>
       <r>   -39.9839     0.0000     6.0000 </r>
       <r>   -39.8009     0.0000     6.0000 </r>
       <r>   -39.6179     0.0000     6.0000 </r>
       <r>   -39.4349     0.0000     6.0000 </r>
       <r>   -39.2519     0.0000     6.0000 </r>
       <r>   -39.0689     0.0000     6.0000 </r>
       <r>   -38.8859     0.0000     6.0000 </r>
       <r>   -38.7029     0.0000     6.0000 </r>
       <r>   -38.5200     0.0000     6.0000 </r>
       <r>   -38.3370     0.0000     6.0000 </r>
       <r>   -38.1540     0.0000     6.0000 </r>
       <r>   -37.9710     0.0000     6.0000 </r>
       <r>   -37.7880     0.0000     6.0000 </r>
       <r>   -37.6050     0.0000     6.0000 </r>
       <r>   -37.4220     0.0000     6.0000 </r>
       <r>   -37.2390     0.0000     6.0000 </r>
       <r>   -37.0560     0.0000     6.0000 </r>
       <r>   -36.8730     0.0000     6.0000 </r>
       <r>   -36.6900     0.0000     6.0000 </r>
       <r>   -36.5071     0.0000     6.0000 </r>
       <r>   -36.3241     0.0000     6.0000 </r>
       <r>   -36.1411     0.0000     6.0000 </r>
       <r>   -35.9581     0.0000     6.0000 </r>
       <r>   -35.7751     0.0000     6.0000 </r>
       <r>   -35.5921     0.0000     6.0000 </r>
       <r>   -35.4091     0.0000     6.0000 </r>
       <r>   -35.2261     0.0000     6.0000 </r>
       <r>   -35.0431     0.0000     6.0000 </r>
       <r>   -34.8601     0.0000     6.0000 </r>
       <r>   -34.6771     0.0000     6.0000 </r>
       <r>   -34.4941     0.0000     6.0000 </r>
       <r>   -34.3112     0.0000     6.0000 </r>
       <r>   -34.1282     0.0000     6.0000 </r>
       <r>   -33.9452     0.0000     6.0000 </r>
       <r>   -33.7622     0.0000     6.0000 </r>
       <r>   -33.5792     0.0000     6.0000 </r>
       <r>   -33.3962     0.0000     6.0000 </r>
       <r>   -33.2132     0.0000     6.0000 </r>
       <r>   -33.0302     0.0000     6.0000 </r>
       <r>   -32.8472     0.0000     6.0000 </r>
       <r>   -32.6642     0.0000     6.0000 </r>
       <r>   -32.4812     0.0000     6.0000 </r>
       <r>   -32.2983     0.0000     6.0000 </r>
       <r>   -32.1153     0.0000     6.0000 </r>
       <r>   -31.9323     0.0000     6.0000 </r>
       <r>   -31.7493     0.0000     6.0000 </r>
       <r>   -31.5663     0.0000     6.0000 </r>
       <r>   -31.3833     0.0000     6.0000 </r>
       <r>   -31.2003     0.0000     6.0000 </r>
       <r>   -31.0173     0.0000     6.0000 </r>
       <r>   -30.8343     0.0000     6.0000 </r>
       <r>   -30.6513     0.0000     6.0000 </r>
       <r>   -30.4683     0.0000     6.0000 </r>
       <r>   -30.2853     0.0000     6.0000 </r>
       <r>   -30.1024     0.0000     6.0000 </r>
       <r>   -29.9194     0.0000     6.0000 </r>
       <r>   -29.7364     0.0000     6.0000 </r>
       <r>   -29.5534     0.0000     6.0000 </r>
       <r>   -29.3704     0.0000     6.0000 </r>
       <r>   -29.1874    10.9295     8.0000 </r>
       <r>   -29.0044     0.0000     8.0000 </r>
       <r>   -28.8214     0.0000     8.0000 </r>
       <r>   -28.6384     0.0000     8.0000 </r>
       <r>   -28.4554     0.0000     8.0000 </r>
       <r>   -28.2724     0.0000     8.0000 </r>
       <r>   -28.0895     0.5120     8.0937 </r>
       <r>   -27.9065     0.0000    10.0000 </r>
       <r>   -27.7235     0.0000    10.0000 </r>
       <r>   -27.5405     0.0000    10.0000 </r>
       <r>   -27.3575     0.0000    10.0000 </r>
       <r>   -27.1745     0.0000    10.0000 </r>
       <r>   -26.9915     0.0000    10.0000 </r>
       <r>   -26.8085     0.0000    12.0000 </r>
       <r>   -26.6255     0.0000    14.0000 </r>
       <r>   -26.4425     0.0000    14.0000 </r>
       <r>   -26.2595     0.0000    14.0000 </r>
       <r>   -26.0766     0.0000    18.0000 </r>
       <r>   -25.8936     0.0000    18.0000 </r>
       <r>   -25.7106     0.0000    18.0000 </r>
       <r>   -25.5276     0.0000    18.0000 </r>
       <r>   -25.3446     0.0000    18.0000 </r>
       <r>   -25.1616     0.0000    18.0000 </r>
       <r>   -24.9786     0.0000    18.0000 </r>
       <r>   -24.7956     0.0000    18.0000 </r>
       <r>   -24.6126     0.0000    18.0000 </r>
       <r>   -24.4296     0.0000    18.0000 </r>
       <r>   -24.2466     0.0000    18.0000 </r>
       <r>   -24.0636     0.0000    18.0000 </r>
       <r>   -23.8807     0.0000    18.0000 </r>
       <r>   -23.6977     0.0000    18.0000 </r>
       <r>   -23.5147     0.0000    20.0000 </r>
       <r>   -23.3317     0.0000    20.0000 </r>
       <r>   -23.1487     0.0000    22.0000 </r>
       <r>   -22.9657     0.0000    22.0000 </r>
       <r>   -22.7827     0.0000    22.0000 </r>
       <r>   -22.5997     0.0000    24.0000 </r>
       <r>   -22.4167    10.9295    26.0000 </r>
       <r>   -22.2337     0.9487    28.1736 </r>
       <r>   -22.0507     0.0134    30.0025 </r>
       <r>   -21.8678     0.0000    32.0000 </r>
       <r>   -21.6848     0.0000    32.0000 </r>
       <r>   -21.5018    10.9295    34.0000 </r>
       <r>   -21.3188     0.0000    34.0000 </r>
       <r>   -21.1358     0.0000    34.0000 </r>
       <r>   -20.9528     0.0000    36.0000 </r>
       <r>   -20.7698    10.9295    38.0000 </r>
       <r>   -20.5868     0.0000    38.0000 </r>
       <r>   -20.4038     0.0000    38.0000 </r>
       <r>   -20.2208     0.0000    38.0000 </r>
       <r>   -20.0378     0.0000    38.0000 </r>
       <r>   -19.8548     0.0000    38.0000 </r>
       <r>   -19.6719     0.0000    38.0000 </r>
       <r>   -19.4889     0.0000    40.0000 </r>
       <r>   -19.3059    10.9295    42.0000 </r>
       <r>   -19.1229     0.0000    42.0000 </r>
       <r>   -18.9399     0.0000    42.0000 </r>
       <r>   -18.7569     9.5403    43.7458 </r>
       <r>   -18.5739     0.0000    44.0000 </r>
       <r>   -18.3909     0.0000    46.0000 </r>
       <r>   -18.2079    10.9295    48.0000 </r>
       <r>   -18.0249    10.9295    50.0000 </r>
       <r>   -17.8419     6.0218    51.1019 </r>
       <r>   -17.6590     0.1054    52.0193 </r>
       <r>   -17.4760     0.0000    56.0000 </r>
       <r>   -17.2930    10.9295    58.0000 </r>
       <r>   -17.1100     0.0000    58.0000 </r>
       <r>   -16.9270    10.1840    59.8636 </r>
       <r>   -16.7440     0.0000    60.0000 </r>
       <r>   -16.5610     0.0000    62.0000 </r>
       <r>   -16.3780     0.0000    62.0000 </r>
       <r>   -16.1950     0.0000    62.0000 </r>
       <r>   -16.0120     0.0000    62.0000 </r>
       <r>   -15.8290     0.0000    64.0000 </r>
       <r>   -15.6460    10.9295    66.0000 </r>
       <r>   -15.4631     0.0000    66.0000 </r>
       <r>   -15.2801     2.5504    66.4667 </r>
       <r>   -15.0971     0.0000    70.0000 </r>
       <r>   -14.9141     0.0000    70.0000 </r>
       <r>   -14.7311    25.1960    74.6106 </r>
       <r>   -14.5481     0.0000    76.0000 </r>
       <r>   -14.3651     2.0698    78.3788 </r>
       <r>   -14.1821     0.0000    80.0000 </r>
       <r>   -13.9991    13.8877    84.5413 </r>
       <r>   -13.8161     9.9443    89.8197 </r>
       <r>   -13.6331     0.0000    90.0000 </r>
       <r>   -13.4502    10.9295    94.0000 </r>
       <r>   -13.2672    10.9407    96.0021 </r>
       <r>   -13.0842     0.0000   100.0000 </r>
       <r>   -12.9012    10.8230   103.9805 </r>
       <r>   -12.7182    11.8780   106.1736 </r>
       <r>   -12.5352    10.9295   110.0000 </r>
       <r>   -12.3522    10.9295   112.0000 </r>
       <r>   -12.1692    10.9295   116.0000 </r>
       <r>   -11.9862     0.2317   118.0424 </r>
       <r>   -11.8032     0.0000   120.0000 </r>
       <r>   -11.6202    11.3149   122.0705 </r>
       <r>   -11.4373     0.0000   124.0000 </r>
       <r>   -11.2543    18.6956   127.4211 </r>
       <r>   -11.0713    10.9295   130.0000 </r>
       <r>   -10.8883     8.4388   131.5442 </r>
       <r>   -10.7053    12.1029   134.2147 </r>
       <r>   -10.5223     0.0000   138.0000 </r>
       <r>   -10.3393     0.0000   140.0000 </r>
       <r>   -10.1563     0.0000   140.0000 </r>
       <r>    -9.9733    17.2007   145.1476 </r>
       <r>    -9.7903    11.3941   148.0850 </r>
       <r>    -9.6073     0.0000   152.0000 </r>
       <r>    -9.4243     0.0000   152.0000 </r>
       <r>    -9.2414     0.0000   154.0000 </r>
       <r>    -9.0584    10.9295   156.0000 </r>
       <r>    -8.8754     0.0000   156.0000 </r>
       <r>    -8.6924    10.9282   157.9998 </r>
       <r>    -8.5094     0.0000   158.0000 </r>
       <r>    -8.3264     0.0000   160.0000 </r>
       <r>    -8.1434     0.0000   160.0000 </r>
       <r>    -7.9604     0.0000   160.0000 </r>
       <r>    -7.7774     0.0000   160.0000 </r>
       <r>    -7.5944     0.0000   160.0000 </r>
       <r>    -7.4114     0.0000   162.0000 </r>
       <r>    -7.2285    10.9289   165.9999 </r>
       <r>    -7.0455     0.0000   166.0000 </r>
       <r>    -6.8625     0.0000   166.0000 </r>
       <r>    -6.6795     0.0000   166.0000 </r>
       <r>    -6.4965     0.0000   166.0000 </r>
       <r>    -6.3135     0.0000   166.0000 </r>
       <r>    -6.1305     0.0000   166.0000 </r>
       <r>    -5.9475     0.0000   166.0000 </r>
       <r>    -5.7645     0.0000   168.0000 </r>
       <r>    -5.5815     0.0000   168.0000 </r>
       <r>    -5.3985     0.0000   168.0000 </r>
       <r>    -5.2155     0.0000   168.0000 </r>
       <r>    -5.0326     0.0000   168.0000 </r>
       <r>    -4.8496    10.9295   172.0000 </r>
       <r>    -4.6666     0.0000   172.0000 </r>
       <r>    -4.4836     5.6809   173.0396 </r>
       <r>    -4.3006     0.0000   174.0000 </r>
       <r>    -4.1176    17.7170   177.2421 </r>
       <r>    -3.9346    21.8288   181.9945 </r>
       <r>    -3.7516     0.0000   182.0000 </r>
       <r>    -3.5686    10.9295   184.0000 </r>
       <r>    -3.3856    10.9295   186.0000 </r>
       <r>    -3.2026    10.9295   188.0000 </r>
       <r>    -3.0197     0.0000   188.0000 </r>
       <r>    -2.8367     0.0000   190.0000 </r>
       <r>    -2.6537     0.0000   192.0000 </r>
       <r>    -2.4707     0.0000   192.0000 </r>
       <r>    -2.2877     0.0000   192.0000 </r>
       <r>    -2.1047     0.0000   192.0000 </r>
       <r>    -1.9217     0.0000   192.0000 </r>
       <r>    -1.7387     6.6088   195.2094 </r>
       <r>    -1.5557     0.0000   198.0000 </r>
       <r>    -1.3727    10.8468   199.9849 </r>
       <r>    -1.1897    10.9316   202.0004 </r>
       <r>    -1.0068     8.0368   207.4707 </r>
       <r>    -0.8238     0.0000   210.0000 </r>
       <r>    -0.6408    10.6794   213.9542 </r>
       <r>    -0.4578     0.7107   218.1301 </r>
       <r>    -0.2748    13.4809   224.4669 </r>
       <r>    -0.0918    10.9299   228.0001 </r>
       <r>     0.0912    11.7885   234.1572 </r>
       <r>     0.2742    11.0005   240.0130 </r>
       <r>     0.4572    22.5396   246.1245 </r>
       <r>     0.6402    17.2909   253.1641 </r>
       <r>     0.8232     0.0000   256.0000 </r>
       <r>     1.0062     0.0000   256.0000 </r>
       <r>     1.1891     0.0000   256.0000 </r>
       <r>     1.3721     0.0000   256.0000 </r>
       <r>     1.5551     0.0000   256.0000 </r>
       <r>     1.7381     0.0000   256.0000 </r>
       <r>     1.9211     0.0000   256.0000 </r>
       <r>     2.1041     0.0000   256.0000 </r>
       <r>     2.2871     0.0000   256.0000 </r>
       <r>     2.4701     0.0000   256.0000 </r>
       <r>     2.6531     0.0000   256.0000 </r>
       <r>     2.8361     0.0000   256.0000 </r>
       <r>     3.0191     0.0000   256.0000 </r>
       <r>     3.2020     0.0000   256.0000 </r>
      </set>
      <set comment="spin 2">
       <r>   -51.6953     0.0000     0.0000 </r>
       <r>   -51.5123     0.0000     0.0000 </r>
       <r>   -51.3293     0.0000     0.0000 </r>
       <r>   -51.1463     0.0000     0.0000 </r>
       <r>   -50.9634     0.0000     0.0000 </r>
       <r>   -50.7804     0.0000     0.0000 </r>
       <r>   -50.5974     0.0000     0.0000 </r>
       <r>   -50.4144     0.0000     0.0000 </r>
       <r>   -50.2314     0.0000     0.0000 </r>
       <r>   -50.0484     0.0000     0.0000 </r>
       <r>   -49.8654     0.0000     0.0000 </r>
       <r>   -49.6824     0.0000     0.0000 </r>
       <r>   -49.4994     0.0000     0.0000 </r>
       <r>   -49.3164     0.0000     0.0000 </r>
       <r>   -49.1334    11.1334     2.0373 </r>
       <r>   -48.9505     0.0000     4.0000 </r>
       <r>   -48.7675    10.9295     6.0000 </r>
       <r>   -48.5845     0.0000     6.0000 </r>
       <r>   -48.4015     0.0000     6.0000 </r>
       <r>   -48.2185     0.0000     6.0000 </r>
       <r>   -48.0355     0.0000     6.0000 </r>
       <r>   -47.8525     0.0000     6.0000 </r>
       <r>   -47.6695     0.0000     6.0000 </r>
       <r>   -47.4865     0.0000     6.0000 </r>
       <r>   -47.3035     0.0000     6.0000 </r>
       <r>   -47.1205     0.0000     6.0000 </r>
       <r>   -46.9376     0.0000     6.0000 </r>
       <r>   -46.7546     0.0000     6.0000 </r>
       <r>   -46.5716     0.0000     6.0000 </r>
       <r>   -46.3886     0.0000     6.0000 </r>
       <r>   -46.2056     0.0000     6.0000 </r>
       <r>   -46.0226     0.0000     6.0000 </r>
       <r>   -45.8396     0.0000     6.0000 </r>
       <r>   -45.6566     0.0000     6.0000 </r>
       <r>   -45.4736     0.0000     6.0000 </r>
       <r>   -45.2906     0.0000     6.0000 </r>
       <r>   -45.1076     0.0000     6.0000 </r>
       <r>   -44.9246     0.0000     6.0000 </r>
       <r>   -44.7417     0.0000     6.0000 </r>
       <r>   -44.5587     0.0000     6.0000 </r>
       <r>   -44.3757     0.0000     6.0000 </r>
       <r>   -44.1927     0.0000     6.0000 </r>
       <r>   -44.0097     0.0000     6.0000 </r>
       <r>   -43.8267     0.0000     6.0000 </r>
       <r>   -43.6437     0.0000     6.0000 </r>
       <r>   -43.4607     0.0000     6.0000 </r>
       <r>   -43.2777     0.0000     6.0000 </r>
       <r>   -43.0947     0.0000     6.0000 </r>
       <r>   -42.9117     0.0000     6.0000 </r>
       <r>   -42.7288     0.0000     6.0000 </r>
       <r>   -42.5458     0.0000     6.0000 </r>
       <r>   -42.3628     0.0000     6.0000 </r>
       <r>   -42.1798     0.0000     6.0000 </r>
       <r>   -41.9968     0.0000     6.0000 </r>
       <r>   -41.8138     0.0000     6.0000 </r>
       <r>   -41.6308     0.0000     6.0000 </r>
       <r>   -41.4478     0.0000     6.0000 </r>
       <r>   -41.2648     0.0000     6.0000 </r>
       <r>   -41.0818     0.0000     6.0000 </r>
       <r>   -40.8988     0.0000     6.0000 </r>
       <r>   -40.7158     0.0000     6.0000 </r>
       <r>   -40.5329     0.0000     6.0000 </r>
       <r>   -40.3499     0.0000     6.0000 </r>
       <r>   -40.1669     0.0000     6.0000 </r>
       <r>   -39.9839     0.0000     6.0000 </r>
       <r>   -39.8009     0.0000     6.0000 </r>
       <r>   -39.6179     0.0000     6.0000 </r>
       <r>   -39.4349     0.0000     6.0000 </r>
       <r>   -39.2519     0.0000     6.0000 </r>
       <r>   -39.0689     0.0000     6.0000 </r>
       <r>   -38.8859     0.0000     6.0000 </r>
       <r>   -38.7029     0.0000     6.0000 </r>
       <r>   -38.5200     0.0000     6.0000 </r>
       <r>   -38.3370     0.0000     6.0000 </r>
       <r>   -38.1540     0.0000     6.0000 </r>
       <r>   -37.9710     0.0000     6.0000 </r>
       <r>   -37.7880     0.0000     6.0000 </r>
       <r>   -37.6050     0.0000     6.0000 </r>
       <r>   -37.4220     0.0000     6.0000 </r>
       <r>   -37.2390     0.0000     6.0000 </r>
       <r>   -37.0560     0.0000     6.0000 </r>
       <r>   -36.8730     0.0000     6.0000 </r>
       <r>   -36.6900     0.0000     6.0000 </r>
       <r>   -36.5071     0.0000     6.0000 </r>
       <r>   -36.3241     0.0000     6.0000 </r>
       <r>   -36.1411     0.0000     6.0000 </r>
       <r>   -35.9581     0.0000     6.0000 </r>
       <r>   -35.7751     0.0000     6.0000 </r>
       <r>   -35.5921     0.0000     6.0000 </r>
       <r>   -35.4091     0.0000     6.0000 </r>
       <r>   -35.2261     0.0000     6.0000 </r>
       <r>   -35.0431     0.0000     6.0000 </r>
       <r>   -34.8601     0.0000     6.0000 </r>
       <r>   -34.6771     0.0000     6.0000 </r>
       <r>   -34.4941     0.0000     6.0000 </r>
       <r>   -34.3112     0.0000     6.0000 </r>
       <r>   -34.1282     0.0000     6.0000 </r>
       <r>   -33.9452     0.0000     6.0000 </r>
       <r>   -33.7622     0.0000     6.0000 </r>
       <r>   -33.5792     0.0000     6.0000 </r>
       <r>   -33.3962     0.0000     6.0000 </r>
       <r>   -33.2132     0.0000     6.0000 </r>
       <r>   -33.0302     0.0000     6.0000 </r>
       <r>   -32.8472     0.0000     6.0000 </r>
       <r>   -32.6642     0.0000     6.0000 </r>
       <r>   -32.4812     0.0000     6.0000 </r>
       <r>   -32.2983     0.0000     6.0000 </r>
       <r>   -32.1153     0.0000     6.0000 </r>
       <r>   -31.9323     0.0000     6.0000 </r>
       <r>   -31.7493     0.0000     6.0000 </r>
       <r>   -31.5663     0.0000     6.0000 </r>
       <r>   -31.3833     0.0000     6.0000 </r>
       <r>   -31.2003     0.0000     6.0000 </r>
       <r>   -31.0173     0.0000     6.0000 </r>
       <r>   -30.8343     0.0000     6.0000 </r>
       <r>   -30.6513     0.0000     6.0000 </r>
       <r>   -30.4683     0.0000     6.0000 </r>
       <r>   -30.2853     0.0000     6.0000 </r>
       <r>   -30.1024     0.0000     6.0000 </r>
       <r>   -29.9194     0.0000     6.0000 </r>
       <r>   -29.7364     0.0000     6.0000 </r>
       <r>   -29.5534     0.0000     6.0000 </r>
       <r>   -29.3704     0.0000     6.0000 </r>
       <r>   -29.1874    10.9295     8.0000 </r>
       <r>   -29.0044     0.0000     8.0000 </r>
       <r>   -28.8214     0.0000     8.0000 </r>
       <r>   -28.6384     0.0000     8.0000 </r>
       <r>   -28.4554     0.0000     8.0000 </r>
       <r>   -28.2724     0.0000     8.0000 </r>
       <r>   -28.0895     0.5120     8.0937 </r>
       <r>   -27.9065     0.0000    10.0000 </r>
       <r>   -27.7235     0.0000    10.0000 </r>
       <r>   -27.5405     0.0000    10.0000 </r>
       <r>   -27.3575     0.0000    10.0000 </r>
       <r>   -27.1745     0.0000    10.0000 </r>
       <r>   -26.9915     0.0000    10.0000 </r>
       <r>   -26.8085     0.0000    12.0000 </r>
       <r>   -26.6255     0.0000    14.0000 </r>
       <r>   -26.4425     0.0000    14.0000 </r>
       <r>   -26.2595     0.0000    14.0000 </r>
       <r>   -26.0766     0.0000    18.0000 </r>
       <r>   -25.8936     0.0000    18.0000 </r>
       <r>   -25.7106     0.0000    18.0000 </r>
       <r>   -25.5276     0.0000    18.0000 </r>
       <r>   -25.3446     0.0000    18.0000 </r>
       <r>   -25.1616     0.0000    18.0000 </r>
       <r>   -24.9786     0.0000    18.0000 </r>
       <r>   -24.7956     0.0000    18.0000 </r>
       <r>   -24.6126     0.0000    18.0000 </r>
       <r>   -24.4296     0.0000    18.0000 </r>
       <r>   -24.2466     0.0000    18.0000 </r>
       <r>   -24.0636     0.0000    18.0000 </r>
       <r>   -23.8807     0.0000    18.0000 </r>
       <r>   -23.6977     0.0000    18.0000 </r>
       <r>   -23.5147     0.0000    20.0000 </r>
       <r>   -23.3317     0.0000    20.0000 </r>
       <r>   -23.1487     0.0000    22.0000 </r>
       <r>   -22.9657     0.0000    22.0000 </r>
       <r>   -22.7827     0.0000    22.0000 </r>
       <r>   -22.5997     0.0000    24.0000 </r>
       <r>   -22.4167    10.9295    26.0000 </r>
       <r>   -22.2337     0.9487    28.1736 </r>
       <r>   -22.0507     0.0134    30.0025 </r>
       <r>   -21.8678     0.0000    32.0000 </r>
       <r>   -21.6848     0.0000    32.0000 </r>
       <r>   -21.5018    10.9295    34.0000 </r>
       <r>   -21.3188     0.0000    34.0000 </r>
       <r>   -21.1358     0.0000    34.0000 </r>
       <r>   -20.9528     0.0000    36.0000 </r>
       <r>   -20.7698    10.9295    38.0000 </r>
       <r>   -20.5868     0.0000    38.0000 </r>
       <r>   -20.4038     0.0000    38.0000 </r>
       <r>   -20.2208     0.0000    38.0000 </r>
       <r>   -20.0378     0.0000    38.0000 </r>
       <r>   -19.8548     0.0000    38.0000 </r>
       <r>   -19.6719     0.0000    38.0000 </r>
       <r>   -19.4889     0.0000    40.0000 </r>
       <r>   -19.3059    10.9295    42.0000 </r>
       <r>   -19.1229     0.0000    42.0000 </r>
       <r>   -18.9399     0.0000    42.0000 </r>
       <r>   -18.7569     9.5403    43.7458 </r>
       <r>   -18.5739     0.0000    44.0000 </r>
       <r>   -18.3909     0.0000    46.0000 </r>
       <r>   -18.2079    10.9295    48.0000 </r>
       <r>   -18.0249    10.9295    50.0000 </r>
       <r>   -17.8419     6.0218    51.1019 </r>
       <r>   -17.6590     0.1054    52.0193 </r>
       <r>   -17.4760     0.0000    56.0000 </r>
       <r>   -17.2930    10.9295    58.0000 </r>
       <r>   -17.1100     0.0000    58.0000 </r>
       <r>   -16.9270    10.1840    59.8636 </r>
       <r>   -16.7440     0.0000    60.0000 </r>
       <r>   -16.5610     0.0000    62.0000 </r>
       <r>   -16.3780     0.0000    62.0000 </r>
       <r>   -16.1950     0.0000    62.0000 </r>
       <r>   -16.0120     0.0000    62.0000 </r>
       <r>   -15.8290     0.0000    64.0000 </r>
       <r>   -15.6460    10.9295    66.0000 </r>
       <r>   -15.4631     0.0000    66.0000 </r>
       <r>   -15.2801     2.5504    66.4667 </r>
       <r>   -15.0971     0.0000    70.0000 </r>
       <r>   -14.9141     0.0000    70.0000 </r>
       <r>   -14.7311    25.1960    74.6106 </r>
       <r>   -14.5481     0.0000    76.0000 </r>
       <r>   -14.3651     2.0698    78.3788 </r>
       <r>   -14.1821     0.0000    80.0000 </r>
       <r>   -13.9991    13.8877    84.5413 </r>
       <r>   -13.8161     9.9443    89.8197 </r>
       <r>   -13.6331     0.0000    90.0000 </r>
       <r>   -13.4502    10.9295    94.0000 </r>
       <r>   -13.2672    10.9407    96.0021 </r>
       <r>   -13.0842     0.0000   100.0000 </r>
       <r>   -12.9012    10.8230   103.9805 </r>
       <r>   -12.7182    11.8780   106.1736 </r>
       <r>   -12.5352    10.9295   110.0000 </r>
       <r>   -12.3522    10.9295   112.0000 </r>
       <r>   -12.1692    10.9295   116.0000 </r>
       <r>   -11.9862     0.2317   118.0424 </r>
       <r>   -11.8032     0.0000   120.0000 </r>
       <r>   -11.6202    11.3149   122.0705 </r>
       <r>   -11.4373     0.0000   124.0000 </r>
       <r>   -11.2543    18.6957   127.4211 </r>
       <r>   -11.0713    10.9295   130.0000 </r>
       <r>   -10.8883     8.4388   131.5442 </r>
       <r>   -10.7053    12.1029   134.2147 </r>
       <r>   -10.5223     0.0000   138.0000 </r>
       <r>   -10.3393     0.0000   140.0000 </r>
       <r>   -10.1563     0.0000   140.0000 </r>
       <r>    -9.9733    17.2007   145.1476 </r>
       <r>    -9.7903    11.3941   148.0850 </r>
       <r>    -9.6073     0.0000   152.0000 </r>
       <r>    -9.4243     0.0000   152.0000 </r>
       <r>    -9.2414     0.0000   154.0000 </r>
       <r>    -9.0584    10.9295   156.0000 </r>
       <r>    -8.8754     0.0000   156.0000 </r>
       <r>    -8.6924    10.9282   157.9998 </r>
       <r>    -8.5094     0.0000   158.0000 </r>
       <r>    -8.3264     0.0000   160.0000 </r>
       <r>    -8.1434     0.0000   160.0000 </r>
       <r>    -7.9604     0.0000   160.0000 </r>
       <r>    -7.7774     0.0000   160.0000 </r>
       <r>    -7.5944     0.0000   160.0000 </r>
       <r>    -7.4114     0.0000   162.0000 </r>
       <r>    -7.2285    10.9289   165.9999 </r>
       <r>    -7.0455     0.0000   166.0000 </r>
       <r>    -6.8625     0.0000   166.0000 </r>
       <r>    -6.6795     0.0000   166.0000 </r>
       <r>    -6.4965     0.0000   166.0000 </r>
       <r>    -6.3135     0.0000   166.0000 </r>
       <r>    -6.1305     0.0000   166.0000 </r>
       <r>    -5.9475     0.0000   166.0000 </r>
       <r>    -5.7645     0.0000   168.0000 </r>
       <r>    -5.5815     0.0000   168.0000 </r>
       <r>    -5.3985     0.0000   168.0000 </r>
       <r>    -5.2155     0.0000   168.0000 </r>
       <r>    -5.0326     0.0000   168.0000 </r>
       <r>    -4.8496    10.9295   172.0000 </r>
       <r>    -4.6666     0.0000   172.0000 </r>
       <r>    -4.4836     5.6809   173.0396 </r>
       <r>    -4.3006     0.0000   174.0000 </r>
       <r>    -4.1176    17.7170   177.2421 </r>
       <r>    -3.9346    21.8288   181.9945 </r>
       <r>    -3.7516     0.0000   182.0000 </r>
       <r>    -3.5686    10.9295   184.0000 </r>
       <r>    -3.3856    10.9295   186.0000 </r>
       <r>    -3.2026    10.9295   188.0000 </r>
       <r>    -3.0197     0.0000   188.0000 </r>
       <r>    -2.8367     0.0000   190.0000 </r>
       <r>    -2.6537     0.0000   192.0000 </r>
       <r>    -2.4707     0.0000   192.0000 </r>
       <r>    -2.2877     0.0000   192.0000 </r>
       <r>    -2.1047     0.0000   192.0000 </r>
       <r>    -1.9217     0.0000   192.0000 </r>
       <r>    -1.7387     6.6084   195.2093 </r>
       <r>    -1.5557     0.0000   198.0000 </r>
       <r>    -1.3727    10.8468   199.9849 </r>
       <r>    -1.1897    10.9316   202.0004 </r>
       <r>    -1.0068     8.0362   207.4705 </r>
       <r>    -0.8238     0.0000   210.0000 </r>
       <r>    -0.6408    10.6794   213.9542 </r>
       <r>    -0.4578     0.7109   218.1301 </r>
       <r>    -0.2748    13.4800   224.4667 </r>
       <r>    -0.0918    10.9299   228.0001 </r>
       <r>     0.0912    11.7883   234.1571 </r>
       <r>     0.2742    11.0004   240.0130 </r>
       <r>     0.4572    22.5394   246.1245 </r>
       <r>     0.6402    17.2908   253.1641 </r>
       <r>     0.8232     0.0000   256.0000 </r>
       <r>     1.0062     0.0000   256.0000 </r>
       <r>     1.1891     0.0000   256.0000 </r>
       <r>     1.3721     0.0000   256.0000 </r>
       <r>     1.5551     0.0000   256.0000 </r>
       <r>     1.7381     0.0000   256.0000 </r>
       <r>     1.9211     0.0000   256.0000 </r>
       <r>     2.1041     0.0000   256.0000 </r>
       <r>     2.2871     0.0000   256.0000 </r>
       <r>     2.4701     0.0000   256.0000 </r>
       <r>     2.6531     0.0000   256.0000 </r>
       <r>     2.8361     0.0000   256.0000 </r>
       <r>     3.0191     0.0000   256.0000 </r>
       <r>     3.2020     0.0000   256.0000 </r>
      </set>
     </set>
    </array>
   </total>
  </dos>
 </calculation>
 <structure name="finalpos" >
  <crystal>
   <varray name="basis" >
    <v>      20.00000000       0.00000000       0.00000000 </v>
    <v>       0.00000000      20.00000000       0.00000000 </v>
    <v>       0.00000000       0.00000000      20.00000000 </v>
   </varray>
   <i name="volume">   8000.00000000 </i>
   <varray name="rec_basis" >
    <v>       0.05000000       0.00000000       0.00000000 </v>
    <v>       0.00000000       0.05000000       0.00000000 </v>
    <v>       0.00000000       0.00000000       0.05000000 </v>
   </varray>
  </crystal>
  <varray name="positions" >
   <v>       0.60227374       0.41933300       0.60593616 </v>
   <v>       0.43793752       0.56561110       0.32757008 </v>
   <v>       0.45581208       0.52423376       0.38051465 </v>
   <v>       0.47372925       0.61530131       0.44986522 </v>
   <v>       0.45595175       0.65963312       0.39935201 </v>
   <v>       0.43785737       0.63472201       0.33675972 </v>
   <v>       0.52307882       0.32955005       0.67474498 </v>
   <v>       0.49710163       0.37190466       0.62618823 </v>
   <v>       0.29334713       0.47671938       0.56830116 </v>
   <v>       0.63096398       0.37761922       0.65422416 </v>
   <v>       0.73964927       0.52855915       0.53463181 </v>
   <v>       0.70082162       0.56612858       0.49044049 </v>
   <v>       0.63257913       0.55363620       0.48652424 </v>
   <v>       0.63952130       0.46927713       0.56732841 </v>
   <v>       0.70843899       0.47974495       0.57314689 </v>
   <v>       0.59134754       0.33224398       0.68903016 </v>
   <v>       0.36211554       0.48866484       0.56417415 </v>
   <v>       0.40790931       0.62211625       0.69058213 </v>
   <v>       0.47619960       0.62606623       0.67660612 </v>
   <v>       0.50295190       0.58590820       0.62668073 </v>
   <v>       0.39825425       0.53800137       0.60426081 </v>
   <v>       0.36904589       0.57756069       0.65398228 </v>
   <v>       0.37289802       0.40579857       0.48223443 </v>
   <v>       0.30486503       0.39173492       0.48443166 </v>
   <v>       0.26422003       0.42785518       0.52821594 </v>
   <v>       0.48989745       0.29510618       0.70074864 </v>
   <v>       0.61334240       0.29968355       0.72673159 </v>
   <v>       0.68424189       0.38076917       0.66478776 </v>
   <v>       0.54225374       0.36233861       0.46129841 </v>
   <v>       0.31579090       0.57306911       0.66420366 </v>
   <v>       0.44416348       0.37118871       0.61364770 </v>
   <v>       0.42392665       0.66833230       0.29622671 </v>
   <v>       0.45642762       0.71313270       0.40950260 </v>
   <v>       0.48809132       0.63358802       0.49907234 </v>
   <v>       0.56912778       0.41808713       0.41480476 </v>
   <v>       0.73767440       0.44963919       0.60776512 </v>
   <v>       0.72277620       0.60481012       0.45904817 </v>
   <v>       0.45570253       0.47012894       0.37468790 </v>
   <v>       0.40614333       0.37888556       0.44852541 </v>
   <v>       0.28443799       0.35306162       0.45202062 </v>
   <v>       0.79326502       0.53703787       0.53892527 </v>
   <v>       0.55589708       0.58769132       0.61440612 </v>
   <v>       0.42412006       0.54328620       0.27986105 </v>
   <v>       0.50894741       0.65984570       0.70400156 </v>
   <v>       0.26265982       0.50568523       0.60265428 </v>
   <v>       0.21072272       0.41813760       0.53105039 </v>
   <v>       0.60090654       0.58197914       0.45254259 </v>
   <v>       0.38544357       0.65296704       0.72941133 </v>
   <v>       0.47424490       0.54794204       0.44140236 </v>
   <v>       0.40180479       0.45306079       0.52108436 </v>
   <v>       0.53520702       0.41608490       0.59173240 </v>
   <v>       0.46544808       0.54254992       0.59041194 </v>
   <v>       0.60138410       0.50650621       0.52397638 </v>
   <v>       0.53073984       0.40562607       0.44215451 </v>
   <v>       0.50088568       0.48087016       0.51934246 </v>
  </varray>
  <varray name="selective"  type="logical" >
   <v type="logical" >  T  T  T </v>
   <v type="logical" >  T  T  T </v>
   <v type="logical" >  T  T  T </v>
   <v type="logical" >  T  T  T </v>
   <v type="logical" >  T  T  T </v>
   <v type="logical" >  T  T  T </v>
   <v type="logical" >  T  T  T </v>
   <v type="logical" >  T  T  T </v>
   <v type="logical" >  T  T  T </v>
   <v type="logical" >  T  T  T </v>
   <v type="logical" >  T  T  T </v>
   <v type="logical" >  T  T  T </v>
   <v type="logical" >  T  T  T </v>
   <v type="logical" >  T  T  T </v>
   <v type="logical" >  T  T  T </v>
   <v type="logical" >  T  T  T </v>
   <v type="logical" >  T  T  T </v>
   <v type="logical" >  T  T  T </v>
   <v type="logical" >  T  T  T </v>
   <v type="logical" >  T  T  T </v>
   <v type="logical" >  T  T  T </v>
   <v type="logical" >  T  T  T </v>
   <v type="logical" >  T  T  T </v>
   <v type="logical" >  T  T  T </v>
   <v type="logical" >  T  T  T </v>
   <v type="logical" >  T  T  T </v>
   <v type="logical" >  T  T  T </v>
   <v type="logical" >  T  T  T </v>
   <v type="logical" >  T  T  T </v>
   <v type="logical" >  T  T  T </v>
   <v type="logical" >  T  T  T </v>
   <v type="logical" >  T  T  T </v>
   <v type="logical" >  T  T  T </v>
   <v type="logical" >  T  T  T </v>
   <v type="logical" >  T  T  T </v>
   <v type="logical" >  T  T  T </v>
   <v type="logical" >  T  T  T </v>
   <v type="logical" >  T  T  T </v>
   <v type="logical" >  T  T  T </v>
   <v type="logical" >  T  T  T </v>
   <v type="logical" >  T  T  T </v>
   <v type="logical" >  T  T  T </v>
   <v type="logical" >  T  T  T </v>
   <v type="logical" >  T  T  T </v>
   <v type="logical" >  T  T  T </v>
   <v type="logical" >  T  T  T </v>
   <v type="logical" >  T  T  T </v>
   <v type="logical" >  T  T  T </v>
   <v type="logical" >  T  T  T </v>
   <v type="logical" >  T  T  T </v>
   <v type="logical" >  T  T  T </v>
   <v type="logical" >  T  T  T </v>
   <v type="logical" >  T  T  T </v>
   <v type="logical" >  T  T  T </v>
   <v type="logical" >  T  T  T </v>
  </varray>
  <nose>
   <v>      -3.00000000       0.00000000       0.00010000       0.00010000 </v>
  </nose>
 </structure>
</modeling>
