  55  55   0   0
  0.1454545E+03  0.2000000E-08  0.2000000E-08  0.2000000E-08  0.5000000E-15
  1.000000000000000E-004
  CAR 
 c2_oh2_ruthenium_mol                    
      3.23793447    -51.61376821  301     -7.09246954      1.00000000
    -51.614  0.0000E+00  0.0000E+00  0.0000E+00  0.0000E+00
    -51.431  0.0000E+00  0.0000E+00  0.0000E+00  0.0000E+00
    -51.248  0.0000E+00  0.0000E+00  0.0000E+00  0.0000E+00
    -51.065  0.0000E+00  0.0000E+00  0.0000E+00  0.0000E+00
    -50.882  0.0000E+00  0.0000E+00  0.0000E+00  0.0000E+00
    -50.700  0.0000E+00  0.0000E+00  0.0000E+00  0.0000E+00
    -50.517  0.0000E+00  0.0000E+00  0.0000E+00  0.0000E+00
    -50.334  0.0000E+00  0.0000E+00  0.0000E+00  0.0000E+00
    -50.151  0.0000E+00  0.0000E+00  0.0000E+00  0.0000E+00
    -49.968  0.0000E+00  0.0000E+00  0.0000E+00  0.0000E+00
    -49.785  0.0000E+00  0.0000E+00  0.0000E+00  0.0000E+00
    -49.603  0.0000E+00  0.0000E+00  0.0000E+00  0.0000E+00
    -49.420  0.0000E+00  0.0000E+00  0.0000E+00  0.0000E+00
    -49.237  0.0000E+00  0.0000E+00  0.0000E+00  0.0000E+00
    -49.054  0.1155E+02  0.1155E+02  0.2112E+01  0.2112E+01
    -48.871  0.0000E+00  0.0000E+00  0.4000E+01  0.4000E+01
    -48.688  0.1094E+02  0.1094E+02  0.6000E+01  0.6000E+01
    -48.506  0.0000E+00  0.0000E+00  0.6000E+01  0.6000E+01
    -48.323  0.0000E+00  0.0000E+00  0.6000E+01  0.6000E+01
    -48.140  0.0000E+00  0.0000E+00  0.6000E+01  0.6000E+01
    -47.957  0.0000E+00  0.0000E+00  0.6000E+01  0.6000E+01
    -47.774  0.0000E+00  0.0000E+00  0.6000E+01  0.6000E+01
    -47.591  0.0000E+00  0.0000E+00  0.6000E+01  0.6000E+01
    -47.408  0.0000E+00  0.0000E+00  0.6000E+01  0.6000E+01
    -47.226  0.0000E+00  0.0000E+00  0.6000E+01  0.6000E+01
    -47.043  0.0000E+00  0.0000E+00  0.6000E+01  0.6000E+01
    -46.860  0.0000E+00  0.0000E+00  0.6000E+01  0.6000E+01
    -46.677  0.0000E+00  0.0000E+00  0.6000E+01  0.6000E+01
    -46.494  0.0000E+00  0.0000E+00  0.6000E+01  0.6000E+01
    -46.311  0.0000E+00  0.0000E+00  0.6000E+01  0.6000E+01
    -46.129  0.0000E+00  0.0000E+00  0.6000E+01  0.6000E+01
    -45.946  0.0000E+00  0.0000E+00  0.6000E+01  0.6000E+01
    -45.763  0.0000E+00  0.0000E+00  0.6000E+01  0.6000E+01
    -45.580  0.0000E+00  0.0000E+00  0.6000E+01  0.6000E+01
    -45.397  0.0000E+00  0.0000E+00  0.6000E+01  0.6000E+01
    -45.214  0.0000E+00  0.0000E+00  0.6000E+01  0.6000E+01
    -45.032  0.0000E+00  0.0000E+00  0.6000E+01  0.6000E+01
    -44.849  0.0000E+00  0.0000E+00  0.6000E+01  0.6000E+01
    -44.666  0.0000E+00  0.0000E+00  0.6000E+01  0.6000E+01
    -44.483  0.0000E+00  0.0000E+00  0.6000E+01  0.6000E+01
    -44.300  0.0000E+00  0.0000E+00  0.6000E+01  0.6000E+01
    -44.117  0.0000E+00  0.0000E+00  0.6000E+01  0.6000E+01
    -43.935  0.0000E+00  0.0000E+00  0.6000E+01  0.6000E+01
    -43.752  0.0000E+00  0.0000E+00  0.6000E+01  0.6000E+01
    -43.569  0.0000E+00  0.0000E+00  0.6000E+01  0.6000E+01
    -43.386  0.0000E+00  0.0000E+00  0.6000E+01  0.6000E+01
    -43.203  0.0000E+00  0.0000E+00  0.6000E+01  0.6000E+01
    -43.020  0.0000E+00  0.0000E+00  0.6000E+01  0.6000E+01
    -42.837  0.0000E+00  0.0000E+00  0.6000E+01  0.6000E+01
    -42.655  0.0000E+00  0.0000E+00  0.6000E+01  0.6000E+01
    -42.472  0.0000E+00  0.0000E+00  0.6000E+01  0.6000E+01
    -42.289  0.0000E+00  0.0000E+00  0.6000E+01  0.6000E+01
    -42.106  0.0000E+00  0.0000E+00  0.6000E+01  0.6000E+01
    -41.923  0.0000E+00  0.0000E+00  0.6000E+01  0.6000E+01
    -41.740  0.0000E+00  0.0000E+00  0.6000E+01  0.6000E+01
    -41.558  0.0000E+00  0.0000E+00  0.6000E+01  0.6000E+01
    -41.375  0.0000E+00  0.0000E+00  0.6000E+01  0.6000E+01
    -41.192  0.0000E+00  0.0000E+00  0.6000E+01  0.6000E+01
    -41.009  0.0000E+00  0.0000E+00  0.6000E+01  0.6000E+01
    -40.826  0.0000E+00  0.0000E+00  0.6000E+01  0.6000E+01
    -40.643  0.0000E+00  0.0000E+00  0.6000E+01  0.6000E+01
    -40.461  0.0000E+00  0.0000E+00  0.6000E+01  0.6000E+01
    -40.278  0.0000E+00  0.0000E+00  0.6000E+01  0.6000E+01
    -40.095  0.0000E+00  0.0000E+00  0.6000E+01  0.6000E+01
    -39.912  0.0000E+00  0.0000E+00  0.6000E+01  0.6000E+01
    -39.729  0.0000E+00  0.0000E+00  0.6000E+01  0.6000E+01
    -39.546  0.0000E+00  0.0000E+00  0.6000E+01  0.6000E+01
    -39.364  0.0000E+00  0.0000E+00  0.6000E+01  0.6000E+01
    -39.181  0.0000E+00  0.0000E+00  0.6000E+01  0.6000E+01
    -38.998  0.0000E+00  0.0000E+00  0.6000E+01  0.6000E+01
    -38.815  0.0000E+00  0.0000E+00  0.6000E+01  0.6000E+01
    -38.632  0.0000E+00  0.0000E+00  0.6000E+01  0.6000E+01
    -38.449  0.0000E+00  0.0000E+00  0.6000E+01  0.6000E+01
    -38.267  0.0000E+00  0.0000E+00  0.6000E+01  0.6000E+01
    -38.084  0.0000E+00  0.0000E+00  0.6000E+01  0.6000E+01
    -37.901  0.0000E+00  0.0000E+00  0.6000E+01  0.6000E+01
    -37.718  0.0000E+00  0.0000E+00  0.6000E+01  0.6000E+01
    -37.535  0.0000E+00  0.0000E+00  0.6000E+01  0.6000E+01
    -37.352  0.0000E+00  0.0000E+00  0.6000E+01  0.6000E+01
    -37.169  0.0000E+00  0.0000E+00  0.6000E+01  0.6000E+01
    -36.987  0.0000E+00  0.0000E+00  0.6000E+01  0.6000E+01
    -36.804  0.0000E+00  0.0000E+00  0.6000E+01  0.6000E+01
    -36.621  0.0000E+00  0.0000E+00  0.6000E+01  0.6000E+01
    -36.438  0.0000E+00  0.0000E+00  0.6000E+01  0.6000E+01
    -36.255  0.0000E+00  0.0000E+00  0.6000E+01  0.6000E+01
    -36.072  0.0000E+00  0.0000E+00  0.6000E+01  0.6000E+01
    -35.890  0.0000E+00  0.0000E+00  0.6000E+01  0.6000E+01
    -35.707  0.0000E+00  0.0000E+00  0.6000E+01  0.6000E+01
    -35.524  0.0000E+00  0.0000E+00  0.6000E+01  0.6000E+01
    -35.341  0.0000E+00  0.0000E+00  0.6000E+01  0.6000E+01
    -35.158  0.0000E+00  0.0000E+00  0.6000E+01  0.6000E+01
    -34.975  0.0000E+00  0.0000E+00  0.6000E+01  0.6000E+01
    -34.793  0.0000E+00  0.0000E+00  0.6000E+01  0.6000E+01
    -34.610  0.0000E+00  0.0000E+00  0.6000E+01  0.6000E+01
    -34.427  0.0000E+00  0.0000E+00  0.6000E+01  0.6000E+01
    -34.244  0.0000E+00  0.0000E+00  0.6000E+01  0.6000E+01
    -34.061  0.0000E+00  0.0000E+00  0.6000E+01  0.6000E+01
    -33.878  0.0000E+00  0.0000E+00  0.6000E+01  0.6000E+01
    -33.696  0.0000E+00  0.0000E+00  0.6000E+01  0.6000E+01
    -33.513  0.0000E+00  0.0000E+00  0.6000E+01  0.6000E+01
    -33.330  0.0000E+00  0.0000E+00  0.6000E+01  0.6000E+01
    -33.147  0.0000E+00  0.0000E+00  0.6000E+01  0.6000E+01
    -32.964  0.0000E+00  0.0000E+00  0.6000E+01  0.6000E+01
    -32.781  0.0000E+00  0.0000E+00  0.6000E+01  0.6000E+01
    -32.599  0.0000E+00  0.0000E+00  0.6000E+01  0.6000E+01
    -32.416  0.0000E+00  0.0000E+00  0.6000E+01  0.6000E+01
    -32.233  0.0000E+00  0.0000E+00  0.6000E+01  0.6000E+01
    -32.050  0.0000E+00  0.0000E+00  0.6000E+01  0.6000E+01
    -31.867  0.0000E+00  0.0000E+00  0.6000E+01  0.6000E+01
    -31.684  0.0000E+00  0.0000E+00  0.6000E+01  0.6000E+01
    -31.501  0.0000E+00  0.0000E+00  0.6000E+01  0.6000E+01
    -31.319  0.0000E+00  0.0000E+00  0.6000E+01  0.6000E+01
    -31.136  0.0000E+00  0.0000E+00  0.6000E+01  0.6000E+01
    -30.953  0.0000E+00  0.0000E+00  0.6000E+01  0.6000E+01
    -30.770  0.0000E+00  0.0000E+00  0.6000E+01  0.6000E+01
    -30.587  0.0000E+00  0.0000E+00  0.6000E+01  0.6000E+01
    -30.404  0.0000E+00  0.0000E+00  0.6000E+01  0.6000E+01
    -30.222  0.0000E+00  0.0000E+00  0.6000E+01  0.6000E+01
    -30.039  0.0000E+00  0.0000E+00  0.6000E+01  0.6000E+01
    -29.856  0.0000E+00  0.0000E+00  0.6000E+01  0.6000E+01
    -29.673  0.0000E+00  0.0000E+00  0.6000E+01  0.6000E+01
    -29.490  0.0000E+00  0.0000E+00  0.6000E+01  0.6000E+01
    -29.307  0.0000E+00  0.0000E+00  0.6000E+01  0.6000E+01
    -29.125  0.1094E+02  0.1094E+02  0.8000E+01  0.8000E+01
    -28.942  0.0000E+00  0.0000E+00  0.8000E+01  0.8000E+01
    -28.759  0.0000E+00  0.0000E+00  0.8000E+01  0.8000E+01
    -28.576  0.0000E+00  0.0000E+00  0.8000E+01  0.8000E+01
    -28.393  0.0000E+00  0.0000E+00  0.8000E+01  0.8000E+01
    -28.210  0.0000E+00  0.0000E+00  0.8000E+01  0.8000E+01
    -28.028  0.0000E+00  0.0000E+00  0.8000E+01  0.8000E+01
    -27.845  0.0000E+00  0.0000E+00  0.8000E+01  0.8000E+01
    -27.662  0.0000E+00  0.0000E+00  0.8000E+01  0.8000E+01
    -27.479  0.0000E+00  0.0000E+00  0.8000E+01  0.8000E+01
    -27.296  0.0000E+00  0.0000E+00  0.1000E+02  0.1000E+02
    -27.113  0.0000E+00  0.0000E+00  0.1000E+02  0.1000E+02
    -26.931  0.0000E+00  0.0000E+00  0.1000E+02  0.1000E+02
    -26.748  0.0000E+00  0.0000E+00  0.1200E+02  0.1200E+02
    -26.565  0.2262E-09  0.2262E-09  0.1200E+02  0.1200E+02
    -26.382  0.0000E+00  0.0000E+00  0.1400E+02  0.1400E+02
    -26.199  0.6072E-15  0.6072E-15  0.1400E+02  0.1400E+02
    -26.016  0.0000E+00  0.0000E+00  0.1800E+02  0.1800E+02
    -25.833  0.0000E+00  0.0000E+00  0.1800E+02  0.1800E+02
    -25.651  0.0000E+00  0.0000E+00  0.1800E+02  0.1800E+02
    -25.468  0.0000E+00  0.0000E+00  0.1800E+02  0.1800E+02
    -25.285  0.0000E+00  0.0000E+00  0.1800E+02  0.1800E+02
    -25.102  0.0000E+00  0.0000E+00  0.1800E+02  0.1800E+02
    -24.919  0.0000E+00  0.0000E+00  0.1800E+02  0.1800E+02
    -24.736  0.0000E+00  0.0000E+00  0.1800E+02  0.1800E+02
    -24.554  0.0000E+00  0.0000E+00  0.1800E+02  0.1800E+02
    -24.371  0.0000E+00  0.0000E+00  0.1800E+02  0.1800E+02
    -24.188  0.1087E+02  0.1087E+02  0.1999E+02  0.1999E+02
    -24.005  0.0000E+00  0.0000E+00  0.2000E+02  0.2000E+02
    -23.822  0.0000E+00  0.0000E+00  0.2000E+02  0.2000E+02
    -23.639  0.0000E+00  0.0000E+00  0.2000E+02  0.2000E+02
    -23.457  0.0000E+00  0.0000E+00  0.2000E+02  0.2000E+02
    -23.274  0.0000E+00  0.0000E+00  0.2000E+02  0.2000E+02
    -23.091  0.0000E+00  0.0000E+00  0.2000E+02  0.2000E+02
    -22.908  0.4657E+01  0.4657E+01  0.2085E+02  0.2085E+02
    -22.725  0.0000E+00  0.0000E+00  0.2200E+02  0.2200E+02
    -22.542  0.7266E+00  0.7266E+00  0.2213E+02  0.2213E+02
    -22.360  0.1094E+02  0.1094E+02  0.2600E+02  0.2600E+02
    -22.177  0.3500E+01  0.3500E+01  0.2864E+02  0.2864E+02
    -21.994  0.3596E-02  0.3596E-02  0.3000E+02  0.3000E+02
    -21.811  0.0000E+00  0.0000E+00  0.3200E+02  0.3200E+02
    -21.628  0.0000E+00  0.0000E+00  0.3200E+02  0.3200E+02
    -21.445  0.0000E+00  0.0000E+00  0.3200E+02  0.3200E+02
    -21.262  0.0000E+00  0.0000E+00  0.3400E+02  0.3400E+02
    -21.080  0.3555E-06  0.3555E-06  0.3400E+02  0.3400E+02
    -20.897  0.0000E+00  0.0000E+00  0.3600E+02  0.3600E+02
    -20.714  0.1094E+02  0.1094E+02  0.3800E+02  0.3800E+02
    -20.531  0.0000E+00  0.0000E+00  0.3800E+02  0.3800E+02
    -20.348  0.0000E+00  0.0000E+00  0.3800E+02  0.3800E+02
    -20.165  0.0000E+00  0.0000E+00  0.3800E+02  0.3800E+02
    -19.983  0.0000E+00  0.0000E+00  0.3800E+02  0.3800E+02
    -19.800  0.0000E+00  0.0000E+00  0.3800E+02  0.3800E+02
    -19.617  0.0000E+00  0.0000E+00  0.3800E+02  0.3800E+02
    -19.434  0.1925E+02  0.1925E+02  0.4152E+02  0.4152E+02
    -19.251  0.0000E+00  0.0000E+00  0.4200E+02  0.4200E+02
    -19.068  0.0000E+00  0.0000E+00  0.4200E+02  0.4200E+02
    -18.886  0.0000E+00  0.0000E+00  0.4200E+02  0.4200E+02
    -18.703  0.1008E+02  0.1008E+02  0.4384E+02  0.4384E+02
    -18.520  0.0000E+00  0.0000E+00  0.4400E+02  0.4400E+02
    -18.337  0.0000E+00  0.0000E+00  0.4600E+02  0.4600E+02
    -18.154  0.1671E-01  0.1671E-01  0.4600E+02  0.4600E+02
    -17.971  0.7978E+01  0.7978E+01  0.4946E+02  0.4946E+02
    -17.789  0.1314E+01  0.1314E+01  0.5024E+02  0.5024E+02
    -17.606  0.5659E-01  0.5659E-01  0.5201E+02  0.5201E+02
    -17.423  0.0000E+00  0.0000E+00  0.5600E+02  0.5600E+02
    -17.240  0.1094E+02  0.1094E+02  0.5800E+02  0.5800E+02
    -17.057  0.0000E+00  0.0000E+00  0.5800E+02  0.5800E+02
    -16.874  0.9332E+00  0.9332E+00  0.5817E+02  0.5817E+02
    -16.692  0.0000E+00  0.0000E+00  0.6000E+02  0.6000E+02
    -16.509  0.1094E+02  0.1094E+02  0.6200E+02  0.6200E+02
    -16.326  0.0000E+00  0.0000E+00  0.6200E+02  0.6200E+02
    -16.143  0.0000E+00  0.0000E+00  0.6200E+02  0.6200E+02
    -15.960  0.0000E+00  0.0000E+00  0.6200E+02  0.6200E+02
    -15.777  0.8326E-04  0.8326E-04  0.6400E+02  0.6400E+02
    -15.594  0.0000E+00  0.0000E+00  0.6600E+02  0.6600E+02
    -15.412  0.0000E+00  0.0000E+00  0.6600E+02  0.6600E+02
    -15.229  0.3340E-01  0.3340E-01  0.6801E+02  0.6801E+02
    -15.046  0.0000E+00  0.0000E+00  0.7000E+02  0.7000E+02
    -14.863  0.0000E+00  0.0000E+00  0.7000E+02  0.7000E+02
    -14.680  0.2656E+02  0.2656E+02  0.7486E+02  0.7486E+02
    -14.497  0.0000E+00  0.0000E+00  0.7600E+02  0.7600E+02
    -14.315  0.3746E+00  0.3746E+00  0.7607E+02  0.7607E+02
    -14.132  0.0000E+00  0.0000E+00  0.7800E+02  0.7800E+02
    -13.949  0.2061E+02  0.2061E+02  0.8577E+02  0.8577E+02
    -13.766  0.4977E+01  0.4977E+01  0.8891E+02  0.8891E+02
    -13.583  0.0000E+00  0.0000E+00  0.9200E+02  0.9200E+02
    -13.400  0.3627E-04  0.3627E-04  0.9200E+02  0.9200E+02
    -13.218  0.5482E-01  0.5482E-01  0.9601E+02  0.9601E+02
    -13.035  0.0000E+00  0.0000E+00  0.1000E+03  0.1000E+03
    -12.852  0.1600E+02  0.1600E+02  0.1029E+03  0.1029E+03
    -12.669  0.2789E+01  0.2789E+01  0.1045E+03  0.1045E+03
    -12.486  0.1094E+02  0.1094E+02  0.1100E+03  0.1100E+03
    -12.303  0.6230E+00  0.6230E+00  0.1121E+03  0.1121E+03
    -12.121  0.1094E+02  0.1094E+02  0.1180E+03  0.1180E+03
    -11.938  0.0000E+00  0.0000E+00  0.1200E+03  0.1200E+03
    -11.755  0.0000E+00  0.0000E+00  0.1200E+03  0.1200E+03
    -11.572  0.8084E+00  0.8084E+00  0.1201E+03  0.1201E+03
    -11.389  0.1094E+02  0.1094E+02  0.1240E+03  0.1240E+03
    -11.206  0.1405E+02  0.1405E+02  0.1266E+03  0.1266E+03
    -11.024  0.1093E+02  0.1093E+02  0.1320E+03  0.1320E+03
    -10.841  0.0000E+00  0.0000E+00  0.1320E+03  0.1320E+03
    -10.658  0.1081E+02  0.1081E+02  0.1360E+03  0.1360E+03
    -10.475  0.2227E-09  0.2227E-09  0.1360E+03  0.1360E+03
    -10.292  0.1094E+02  0.1094E+02  0.1400E+03  0.1400E+03
    -10.109  0.0000E+00  0.0000E+00  0.1400E+03  0.1400E+03
     -9.926  0.2187E+02  0.2187E+02  0.1440E+03  0.1440E+03
     -9.744  0.1056E+02  0.1056E+02  0.1479E+03  0.1479E+03
     -9.561  0.0000E+00  0.0000E+00  0.1520E+03  0.1520E+03
     -9.378  0.6072E-15  0.6072E-15  0.1520E+03  0.1520E+03
     -9.195  0.0000E+00  0.0000E+00  0.1540E+03  0.1540E+03
     -9.012  0.0000E+00  0.0000E+00  0.1540E+03  0.1540E+03
     -8.829  0.1094E+02  0.1094E+02  0.1560E+03  0.1560E+03
     -8.647  0.1013E+02  0.1013E+02  0.1579E+03  0.1579E+03
     -8.464  0.0000E+00  0.0000E+00  0.1580E+03  0.1580E+03
     -8.281  0.1094E+02  0.1094E+02  0.1600E+03  0.1600E+03
     -8.098  0.0000E+00  0.0000E+00  0.1600E+03  0.1600E+03
     -7.915  0.0000E+00  0.0000E+00  0.1600E+03  0.1600E+03
     -7.732  0.0000E+00  0.0000E+00  0.1600E+03  0.1600E+03
     -7.550  0.0000E+00  0.0000E+00  0.1600E+03  0.1600E+03
     -7.367  0.0000E+00  0.0000E+00  0.1620E+03  0.1620E+03
     -7.184  0.1100E+02  0.1100E+02  0.1640E+03  0.1640E+03
     -7.001  0.0000E+00  0.0000E+00  0.1660E+03  0.1660E+03
     -6.818  0.0000E+00  0.0000E+00  0.1660E+03  0.1660E+03
     -6.635  0.0000E+00  0.0000E+00  0.1660E+03  0.1660E+03
     -6.453  0.0000E+00  0.0000E+00  0.1660E+03  0.1660E+03
     -6.270  0.0000E+00  0.0000E+00  0.1660E+03  0.1660E+03
     -6.087  0.0000E+00  0.0000E+00  0.1660E+03  0.1660E+03
     -5.904  0.0000E+00  0.0000E+00  0.1660E+03  0.1660E+03
     -5.721  0.1094E+02  0.1094E+02  0.1680E+03  0.1680E+03
     -5.538  0.0000E+00  0.0000E+00  0.1680E+03  0.1680E+03
     -5.355  0.0000E+00  0.0000E+00  0.1680E+03  0.1680E+03
     -5.173  0.3593E-11  0.3593E-11  0.1680E+03  0.1680E+03
     -4.990  0.3271E-10  0.3271E-10  0.1700E+03  0.1700E+03
     -4.807  0.0000E+00  0.0000E+00  0.1720E+03  0.1720E+03
     -4.624  0.0000E+00  0.0000E+00  0.1720E+03  0.1720E+03
     -4.441  0.0000E+00  0.0000E+00  0.1720E+03  0.1720E+03
     -4.258  0.0000E+00  0.0000E+00  0.1740E+03  0.1740E+03
     -4.076  0.1112E+02  0.1112E+02  0.1760E+03  0.1760E+03
     -3.893  0.1185E+02  0.1185E+02  0.1802E+03  0.1802E+03
     -3.710  0.0000E+00  0.0000E+00  0.1820E+03  0.1820E+03
     -3.527  0.0000E+00  0.0000E+00  0.1820E+03  0.1820E+03
     -3.344  0.3051E-03  0.3051E-03  0.1840E+03  0.1840E+03
     -3.161  0.1613E+01  0.1613E+01  0.1863E+03  0.1863E+03
     -2.979  0.0000E+00  0.0000E+00  0.1880E+03  0.1880E+03
     -2.796  0.0000E+00  0.0000E+00  0.1900E+03  0.1900E+03
     -2.613  0.0000E+00  0.0000E+00  0.1920E+03  0.1920E+03
     -2.430  0.0000E+00  0.0000E+00  0.1920E+03  0.1920E+03
     -2.247  0.0000E+00  0.0000E+00  0.1920E+03  0.1920E+03
     -2.064  0.0000E+00  0.0000E+00  0.1920E+03  0.1920E+03
     -1.882  0.1094E+02  0.1094E+02  0.1940E+03  0.1940E+03
     -1.699  0.3485E+00  0.3487E+00  0.1941E+03  0.1941E+03
     -1.516  0.0000E+00  0.0000E+00  0.1980E+03  0.1980E+03
     -1.333  0.6364E-03  0.6364E-03  0.2000E+03  0.2000E+03
     -1.150  0.6606E-04  0.6614E-04  0.2020E+03  0.2020E+03
     -0.967  0.1514E+02  0.1514E+02  0.2088E+03  0.2088E+03
     -0.785  0.1082E+02  0.1082E+02  0.2120E+03  0.2120E+03
     -0.602  0.1821E+02  0.1821E+02  0.2153E+03  0.2153E+03
     -0.419  0.8251E+01  0.8250E+01  0.2195E+03  0.2195E+03
     -0.236  0.8286E+01  0.8287E+01  0.2255E+03  0.2255E+03
     -0.053  0.1145E+02  0.1145E+02  0.2281E+03  0.2281E+03
      0.130  0.1099E+02  0.1099E+02  0.2340E+03  0.2340E+03
      0.313  0.1827E+02  0.1827E+02  0.2413E+03  0.2413E+03
      0.495  0.2046E+02  0.2046E+02  0.2477E+03  0.2477E+03
      0.678  0.1185E+02  0.1185E+02  0.2522E+03  0.2522E+03
      0.861  0.0000E+00  0.0000E+00  0.2560E+03  0.2560E+03
      1.044  0.0000E+00  0.0000E+00  0.2560E+03  0.2560E+03
      1.227  0.0000E+00  0.0000E+00  0.2560E+03  0.2560E+03
      1.410  0.0000E+00  0.0000E+00  0.2560E+03  0.2560E+03
      1.592  0.0000E+00  0.0000E+00  0.2560E+03  0.2560E+03
      1.775  0.0000E+00  0.0000E+00  0.2560E+03  0.2560E+03
      1.958  0.0000E+00  0.0000E+00  0.2560E+03  0.2560E+03
      2.141  0.0000E+00  0.0000E+00  0.2560E+03  0.2560E+03
      2.324  0.0000E+00  0.0000E+00  0.2560E+03  0.2560E+03
      2.507  0.0000E+00  0.0000E+00  0.2560E+03  0.2560E+03
      2.689  0.0000E+00  0.0000E+00  0.2560E+03  0.2560E+03
      2.872  0.0000E+00  0.0000E+00  0.2560E+03  0.2560E+03
      3.055  0.0000E+00  0.0000E+00  0.2560E+03  0.2560E+03
      3.238  0.0000E+00  0.0000E+00  0.2560E+03  0.2560E+03
