   55   55    1    2
  0.1454545E+03  0.2000000E-08  0.2000000E-08  0.2000000E-08  0.5000000E-15
  1.000000000000000E-004
  CAR 
 c2_oh2_ruthenium_mol                    
    166      1    128
 
  0.0000000E+00  0.0000000E+00  0.0000000E+00  0.1000000E+01
    1      -49.120509    -49.120509
    2      -49.042787    -49.042787
    3      -48.735924    -48.735924
    4      -29.189952    -29.189952
    5      -27.414587    -27.414587
    6      -26.856206    -26.856206
    7      -26.518161    -26.518161
    8      -26.140179    -26.140179
    9      -26.105541    -26.105541
   10      -24.205606    -24.205606
   11      -22.906720    -22.906720
   12      -22.531738    -22.531738
   13      -22.412731    -22.412731
   14      -22.300492    -22.300492
   15      -22.173379    -22.173379
   16      -21.969760    -21.969760
   17      -21.378663    -21.378663
   18      -21.041438    -21.041438
   19      -20.773692    -20.773692
   20      -19.481134    -19.481134
   21      -19.439095    -19.439095
   22      -18.712735    -18.712735
   23      -18.428636    -18.428636
   24      -18.133284    -18.133284
   25      -17.975710    -17.975710
   26      -17.780249    -17.780249
   27      -17.587582    -17.587582
   28      -17.556653    -17.556653
   29      -17.285493    -17.285493
   30      -16.864668    -16.864668
   31      -16.571508    -16.571508
   32      -15.878777    -15.878777
   33      -15.746737    -15.746737
   34      -15.320803    -15.320803
   35      -15.209417    -15.209417
   36      -14.750375    -14.750375
   37      -14.717169    -14.717169
   38      -14.679006    -14.679006
   39      -14.301729    -14.301729
   40      -14.055644    -14.055644
   41      -14.047536    -14.047536
   42      -13.989379    -13.989379
   43      -13.957374    -13.957374
   44      -13.865327    -13.865327
   45      -13.765295    -13.765295
   46      -13.716963    -13.716963
   47      -13.368559    -13.368559
   48      -13.350090    -13.350090
   49      -13.199368    -13.199368
   50      -13.147738    -13.147738
   51      -12.923486    -12.923486
   52      -12.851234    -12.851234
   53      -12.664066    -12.664066
   54      -12.653707    -12.653707
   55      -12.555702    -12.555702
   56      -12.417972    -12.417972
   57      -12.292203    -12.292203
   58      -12.253530    -12.253530
   59      -12.175675    -12.175675
   60      -12.033068    -12.033068
   61      -11.561791    -11.561791
   62      -11.425170    -11.425170
   63      -11.277302    -11.277302
   64      -11.202314    -11.202314
   65      -11.141403    -11.141403
   66      -11.046511    -11.046511
   67      -10.761522    -10.761522
   68      -10.673841    -10.673841
   69      -10.428312    -10.428312
   70      -10.325231    -10.325231
   71       -9.962704     -9.962704
   72       -9.949798     -9.949798
   73       -9.897327     -9.897327
   74       -9.756516     -9.756516
   75       -9.713880     -9.713880
   76       -9.681191     -9.681191
   77       -9.318875     -9.318875
   78       -8.897506     -8.897506
   79       -8.656825     -8.656825
   80       -8.359009     -8.359009
   81       -7.482013     -7.482013
   82       -7.258376     -7.258377
   83       -7.166128     -7.166128
   84       -5.746742     -5.746742
   85       -5.121832     -5.121832
   86       -4.941171     -4.941171
   87       -4.339884     -4.339884
   88       -4.126200     -4.126200
   89       -4.060496     -4.060496
   90       -3.936547     -3.936547
   91       -3.883014     -3.883015
   92       -3.442145     -3.442145
   93       -3.315774     -3.315774
   94       -3.154026     -3.154026
   95       -2.905675     -2.905677
   96       -2.693873     -2.693873
   97       -1.926648     -1.926647
   98       -1.685608     -1.685610
   99       -1.622861     -1.622861
  100       -1.451117     -1.451117
  101       -1.305791     -1.305791
  102       -1.119258     -1.119259
  103       -1.060370     -1.060370
  104       -1.004685     -1.004685
  105       -0.965271     -0.965272
  106       -0.800775     -0.800775
  107       -0.636150     -0.636150
  108       -0.604694     -0.604694
  109       -0.509989     -0.509989
  110       -0.423710     -0.423710
  111       -0.390121     -0.390121
  112       -0.327229     -0.327228
  113       -0.240945     -0.240947
  114       -0.127393     -0.127394
  115       -0.041307     -0.041307
  116        0.040837      0.040839
  117        0.083759      0.083759
  118        0.148023      0.148022
  119        0.227093      0.227093
  120        0.253945      0.253944
  121        0.309397      0.309398
  122        0.412012      0.412013
  123        0.425974      0.425974
  124        0.487368      0.487371
  125        0.581296      0.581295
  126        0.660570      0.660574
  127        0.687702      0.687674
  128        0.744675      0.744446
