       N       E                     dE             d eps       ncg     rms          rms(c)
DAV:   1     0.909351037676E+03    0.90935E+03   -0.58810E+04   768   0.974E+02
DAV:   2    -0.681504392944E+02   -0.97750E+03   -0.97089E+03  1024   0.160E+02
DAV:   3    -0.393350979911E+03   -0.32520E+03   -0.32477E+03   832   0.847E+01
DAV:   4    -0.412291516455E+03   -0.18941E+02   -0.18917E+02   640   0.258E+01
DAV:   5    -0.412547743096E+03   -0.25623E+00   -0.25612E+00   896   0.317E+00    0.571E+01
DAV:   6    -0.393072328032E+03    0.19475E+02   -0.33334E+02   576   0.230E+01    0.382E+01
DAV:   7    -0.382812921629E+03    0.10259E+02   -0.23703E+01   704   0.201E+01    0.233E+01
DAV:   8    -0.378768076050E+03    0.40448E+01   -0.17182E+01   768   0.947E+00    0.941E+00
DAV:   9    -0.377657021653E+03    0.11111E+01   -0.72943E+00   768   0.512E+00    0.360E+00
DAV:  10    -0.377622376932E+03    0.34645E-01   -0.26692E-01   768   0.131E+00    0.258E+00
DAV:  11    -0.377495259383E+03    0.12712E+00   -0.14963E-01   896   0.919E-01    0.127E+00
DAV:  12    -0.377417238578E+03    0.78021E-01   -0.10246E-01   768   0.709E-01    0.710E-01
DAV:  13    -0.377392113105E+03    0.25125E-01   -0.17876E-02   768   0.378E-01    0.533E-01
DAV:  14    -0.377377071921E+03    0.15041E-01   -0.21824E-02   768   0.384E-01    0.308E-01
DAV:  15    -0.377379028816E+03   -0.19569E-02   -0.81816E-03   768   0.245E-01    0.230E-01
DAV:  16    -0.377388640950E+03   -0.96121E-02   -0.19730E-03   768   0.142E-01    0.125E-01
DAV:  17    -0.377395274232E+03   -0.66333E-02   -0.12625E-03   768   0.102E-01    0.886E-02
DAV:  18    -0.377399324585E+03   -0.40504E-02   -0.41838E-04   768   0.601E-02    0.622E-02
DAV:  19    -0.377403880756E+03   -0.45562E-02   -0.36525E-04   768   0.563E-02    0.372E-02
DAV:  20    -0.377406127557E+03   -0.22468E-02   -0.88041E-05   768   0.294E-02    0.270E-02
DAV:  21    -0.377407862177E+03   -0.17346E-02   -0.47422E-05   768   0.207E-02    0.160E-02
DAV:  22    -0.377409247691E+03   -0.13855E-02   -0.53292E-05   768   0.177E-02    0.929E-03
DAV:  23    -0.377409765766E+03   -0.51808E-03   -0.10055E-05   640   0.796E-03    0.759E-03
DAV:  24    -0.377410177554E+03   -0.41179E-03   -0.83852E-06   640   0.618E-03    0.369E-03
DAV:  25    -0.377410411674E+03   -0.23412E-03   -0.49766E-06   640   0.438E-03    0.243E-03
DAV:  26    -0.377410517348E+03   -0.10567E-03   -0.12432E-06   640   0.231E-03    0.150E-03
DAV:  27    -0.377410617197E+03   -0.99849E-04   -0.18457E-06   640   0.240E-03    0.102E-03
DAV:  28    -0.377410648237E+03   -0.31040E-04   -0.29175E-07   640   0.115E-03    0.680E-04
DAV:  29    -0.377410677680E+03   -0.29444E-04   -0.34735E-07   640   0.114E-03    0.337E-04
DAV:  30    -0.377410687567E+03   -0.98865E-05    0.18344E-09   640   0.596E-04
   1 F= -.37741069E+03 E0= -.37741069E+03  d E =-.154408E-25  mag=    -0.0000
