 vasp.5.3.5 31Mar14 (build Apr 08 2014 12:00:03) complex                        
  
 VASP binary ID code NSC-NSCPATCH-BUILD02 date 2017.03.15  18:51:12
 running on   64 total cores
 distrk:  each k-point on   64 cores,    1 groups
 distr:  one band on NCORES_PER_BAND=   1 cores,   64 groups


--------------------------------------------------------------------------------------------------------


 INCAR:
 POTCAR:    PAW_PBE C_h 06Feb2004                 
 POTCAR:    PAW_PBE C_h 06Feb2004                 
 POTCAR:    PAW_PBE H 15Jun2001                   
 POTCAR:    PAW_PBE N_h 06Feb2004                 
 POTCAR:    PAW_PBE O_h 06Feb2004                 
 POTCAR:    PAW_PBE Ru_pv 28Jan2005               

 ----------------------------------------------------------------------------- 
|                                                                             |
|           W    W    AA    RRRRR   N    N  II  N    N   GGGG   !!!           |
|           W    W   A  A   R    R  NN   N  II  NN   N  G    G  !!!           |
|           W    W  A    A  R    R  N N  N  II  N N  N  G       !!!           |
|           W WW W  AAAAAA  RRRRR   N  N N  II  N  N N  G  GGG   !            |
|           WW  WW  A    A  R   R   N   NN  II  N   NN  G    G                |
|           W    W  A    A  R    R  N    N  II  N    N   GGGG   !!!           |
|                                                                             |
|      For optimal performance we recommend to set                            |
|        NCORE= 4 - approx SQRT( number of cores)                             |
|      NCORE specifies how many cores store one orbital (NPAR=cpu/NCORE).     |
|      This setting can  greatly improve the performance of VASP for DFT.     |
|      The default, NPAR=number of cores might be grossly inefficient         |
|      on modern multi-core architectures or massively parallel machines.     |
|      Do your own testing !!!!                                               |
|      Unfortunately you need to use the default for GW and RPA calculations. |
|      (for HF NCORE is supported but not extensively tested yet)             |
|                                                                             |
 ----------------------------------------------------------------------------- 

 POTCAR:    PAW_PBE C_h 06Feb2004                 
   VRHFIN =C: s2p2                                                              
   LEXCH  = PE                                                                  
   EATOM  =   147.1560 eV,   10.8157 Ry                                         
                                                                                
   TITEL  = PAW_PBE C_h 06Feb2004                                               
   LULTRA =        F    use ultrasoft PP ?                                      
   IUNSCR =        1    unscreen: 0-lin 1-nonlin 2-no                           
   RPACOR =    0.800    partial core radius                                     
   POMASS =   12.011; ZVAL   =    4.000    mass and valenz                      
   RCORE  =    1.100    outmost cutoff radius                                   
   RWIGS  =    1.630; RWIGS  =    0.863    wigner-seitz radius (au A)           
   ENMAX  =  700.000; ENMIN  =  500.000 eV                                      
   ICORE  =        2    local potential                                         
   LCOR   =        T    correct aug charges                                     
   LPAW   =        T    paw PP                                                  
   EAUG   =  946.768                                                            
   DEXC   =    0.000                                                            
   RMAX   =    1.128    core radius for proj-oper                               
   RAUG   =    1.300    factor for augmentation sphere                          
   RDEP   =    1.162    radius for radial grids                                 
   RDEPT  =    1.088    core radius for aug-charge                              
                                                                                
   Atomic configuration                                                         
    4 entries                                                                   
     n  l   j            E        occ.                                          
     1  0  0.50      -273.3789   2.0000                                         
     2  0  0.50       -13.7508   2.0000                                         
     2  1  0.50        -5.2854   2.0000                                         
     3  2  1.50        -5.4423   0.0000                                         
   Description                                                                  
     l       E           TYP  RCUT    TYP  RCUT                                 
     0    -13.7508458     23  1.100                                             
     0     -8.2022199     23  1.100                                             
     1     -5.2854383     23  1.100                                             
     1      1.1560700     23  1.100                                             
     2     -5.4423304      7  1.100                                             
  local pseudopotential read in
  partial core-charges read in
  partial kinetic energy density read in
  atomic valenz-charges read in
  non local Contribution for L=           0  read in
    real space projection operators read in
  non local Contribution for L=           0  read in
    real space projection operators read in
  non local Contribution for L=           1  read in
    real space projection operators read in
  non local Contribution for L=           1  read in
    real space projection operators read in
    PAW grid and wavefunctions read in
 
   number of l-projection  operators is LMAX  =           4
   number of lm-projection operators is LMMAX =           8
 
 POTCAR:    PAW_PBE C_h 06Feb2004                 
   VRHFIN =C: s2p2                                                              
   LEXCH  = PE                                                                  
   EATOM  =   147.1560 eV,   10.8157 Ry                                         
                                                                                
   TITEL  = PAW_PBE C_h 06Feb2004                                               
   LULTRA =        F    use ultrasoft PP ?                                      
   IUNSCR =        1    unscreen: 0-lin 1-nonlin 2-no                           
   RPACOR =    0.800    partial core radius                                     
   POMASS =   12.011; ZVAL   =    4.000    mass and valenz                      
   RCORE  =    1.100    outmost cutoff radius                                   
   RWIGS  =    1.630; RWIGS  =    0.863    wigner-seitz radius (au A)           
   ENMAX  =  700.000; ENMIN  =  500.000 eV                                      
   ICORE  =        2    local potential                                         
   LCOR   =        T    correct aug charges                                     
   LPAW   =        T    paw PP                                                  
   EAUG   =  946.768                                                            
   DEXC   =    0.000                                                            
   RMAX   =    1.128    core radius for proj-oper                               
   RAUG   =    1.300    factor for augmentation sphere                          
   RDEP   =    1.162    radius for radial grids                                 
   RDEPT  =    1.088    core radius for aug-charge                              
                                                                                
   Atomic configuration                                                         
    4 entries                                                                   
     n  l   j            E        occ.                                          
     1  0  0.50      -273.3789   2.0000                                         
     2  0  0.50       -13.7508   2.0000                                         
     2  1  0.50        -5.2854   2.0000                                         
     3  2  1.50        -5.4423   0.0000                                         
   Description                                                                  
     l       E           TYP  RCUT    TYP  RCUT                                 
     0    -13.7508458     23  1.100                                             
     0     -8.2022199     23  1.100                                             
     1     -5.2854383     23  1.100                                             
     1      1.1560700     23  1.100                                             
     2     -5.4423304      7  1.100                                             
  local pseudopotential read in
  partial core-charges read in
  partial kinetic energy density read in
  atomic valenz-charges read in
  non local Contribution for L=           0  read in
    real space projection operators read in
  non local Contribution for L=           0  read in
    real space projection operators read in
  non local Contribution for L=           1  read in
    real space projection operators read in
  non local Contribution for L=           1  read in
    real space projection operators read in
    PAW grid and wavefunctions read in
 
   number of l-projection  operators is LMAX  =           4
   number of lm-projection operators is LMMAX =           8
 
 POTCAR:    PAW_PBE H 15Jun2001                   
   VRHFIN =H: ultrasoft test                                                    
   LEXCH  = PE                                                                  
   EATOM  =    12.4884 eV,    0.9179 Ry                                         
                                                                                
   TITEL  = PAW_PBE H 15Jun2001                                                 
   LULTRA =        F    use ultrasoft PP ?                                      
   IUNSCR =        0    unscreen: 0-lin 1-nonlin 2-no                           
   RPACOR =    0.000    partial core radius                                     
   POMASS =    1.000; ZVAL   =    1.000    mass and valenz                      
   RCORE  =    1.100    outmost cutoff radius                                   
   RWIGS  =    0.700; RWIGS  =    0.370    wigner-seitz radius (au A)           
   ENMAX  =  250.000; ENMIN  =  200.000 eV                                      
   RCLOC  =    0.701    cutoff for local pot                                    
   LCOR   =        T    correct aug charges                                     
   LPAW   =        T    paw PP                                                  
   EAUG   =  400.000                                                            
   RMAX   =    1.123    core radius for proj-oper                               
   RAUG   =    1.200    factor for augmentation sphere                          
   RDEP   =    1.112    radius for radial grids                                 
   RDEPT  =    0.926    core radius for aug-charge                              
                                                                                
   Atomic configuration                                                         
    2 entries                                                                   
     n  l   j            E        occ.                                          
     1  0  0.50        -6.4927   1.0000                                         
     2  1  0.50        -3.4015   0.0000                                         
   Description                                                                  
     l       E           TYP  RCUT    TYP  RCUT                                 
     0     -6.4927494     23  1.100                                             
     0      6.8029130     23  1.100                                             
     1     -4.0817478     23  1.100                                             
  local pseudopotential read in
  atomic valenz-charges read in
  non local Contribution for L=           0  read in
    real space projection operators read in
  non local Contribution for L=           0  read in
    real space projection operators read in
  non local Contribution for L=           1  read in
    real space projection operators read in
    PAW grid and wavefunctions read in
 
   number of l-projection  operators is LMAX  =           3
   number of lm-projection operators is LMMAX =           5
 
 POTCAR:    PAW_PBE N_h 06Feb2004                 
   VRHFIN =N: s2p3                                                              
   LEXCH  = PE                                                                  
   EATOM  =   264.5486 eV,   19.4438 Ry                                         
                                                                                
   TITEL  = PAW_PBE N_h 06Feb2004                                               
   LULTRA =        F    use ultrasoft PP ?                                      
   IUNSCR =        1    unscreen: 0-lin 1-nonlin 2-no                           
   RPACOR =    0.800    partial core radius                                     
   POMASS =   14.001; ZVAL   =    5.000    mass and valenz                      
   RCORE  =    1.100    outmost cutoff radius                                   
   RWIGS  =    1.480; RWIGS  =    0.783    wigner-seitz radius (au A)           
   ENMAX  =  700.000; ENMIN  =  500.000 eV                                      
   ICORE  =        2    local potential                                         
   LCOR   =        T    correct aug charges                                     
   LPAW   =        T    paw PP                                                  
   EAUG   =  904.640                                                            
   DEXC   =    0.000                                                            
   RMAX   =    1.127    core radius for proj-oper                               
   RAUG   =    1.300    factor for augmentation sphere                          
   RDEP   =    1.115    radius for radial grids                                 
   RDEPT  =    1.106    core radius for aug-charge                              
                                                                                
   Atomic configuration                                                         
    4 entries                                                                   
     n  l   j            E        occ.                                          
     1  0  0.50      -384.7179   2.0000                                         
     2  0  0.50       -18.5828   2.0000                                         
     2  1  0.50        -7.0898   3.0000                                         
     3  2  1.50        -6.8029   0.0000                                         
   Description                                                                  
     l       E           TYP  RCUT    TYP  RCUT                                 
     0    -18.5828117     23  1.100                                             
     0    -15.0750597     23  1.100                                             
     1     -7.0897851     23  1.100                                             
     1     -1.9663412     23  1.100                                             
     2     -6.8029130      7  1.100                                             
  local pseudopotential read in
  partial core-charges read in
  partial kinetic energy density read in
  kinetic energy density of atom read in
  atomic valenz-charges read in
  non local Contribution for L=           0  read in
    real space projection operators read in
  non local Contribution for L=           0  read in
    real space projection operators read in
  non local Contribution for L=           1  read in
    real space projection operators read in
  non local Contribution for L=           1  read in
    real space projection operators read in
    PAW grid and wavefunctions read in
 
   number of l-projection  operators is LMAX  =           4
   number of lm-projection operators is LMMAX =           8
 
 POTCAR:    PAW_PBE O_h 06Feb2004                 
   VRHFIN =O: s2p4                                                              
   LEXCH  = PE                                                                  
   EATOM  =   432.3788 eV,   31.7789 Ry                                         
                                                                                
   TITEL  = PAW_PBE O_h 06Feb2004                                               
   LULTRA =        F    use ultrasoft PP ?                                      
   IUNSCR =        1    unscreen: 0-lin 1-nonlin 2-no                           
   RPACOR =    0.800    partial core radius                                     
   POMASS =   16.000; ZVAL   =    6.000    mass and valenz                      
   RCORE  =    1.100    outmost cutoff radius                                   
   RWIGS  =    1.400; RWIGS  =    0.741    wigner-seitz radius (au A)           
   ENMAX  =  700.000; ENMIN  =  500.000 eV                                      
   ICORE  =        2    local potential                                         
   LCOR   =        T    correct aug charges                                     
   LPAW   =        T    paw PP                                                  
   EAUG   =  888.804                                                            
   DEXC   =    0.000                                                            
   RMAX   =    1.128    core radius for proj-oper                               
   RAUG   =    1.300    factor for augmentation sphere                          
   RDEP   =    1.125    radius for radial grids                                 
   RDEPT  =    1.088    core radius for aug-charge                              
                                                                                
   Atomic configuration                                                         
    4 entries                                                                   
     n  l   j            E        occ.                                          
     1  0  0.50      -514.6923   2.0000                                         
     2  0  0.50       -23.9615   2.0000                                         
     2  1  0.50        -9.0305   4.0000                                         
     3  2  1.50        -9.5241   0.0000                                         
   Description                                                                  
     l       E           TYP  RCUT    TYP  RCUT                                 
     0    -23.9615319     23  1.100                                             
     0    -25.3221145     23  1.100                                             
     1     -9.0304911     23  1.100                                             
     1     -5.4802209     23  1.100                                             
     2     -9.5240782      7  1.100                                             
  local pseudopotential read in
  partial core-charges read in
  partial kinetic energy density read in
  atomic valenz-charges read in
  non local Contribution for L=           0  read in
    real space projection operators read in
  non local Contribution for L=           0  read in
    real space projection operators read in
  non local Contribution for L=           1  read in
    real space projection operators read in
  non local Contribution for L=           1  read in
    real space projection operators read in
    PAW grid and wavefunctions read in
 
   number of l-projection  operators is LMAX  =           4
   number of lm-projection operators is LMMAX =           8
 
 POTCAR:    PAW_PBE Ru_pv 28Jan2005               
   VRHFIN =Ru: 4p5s4d                                                           
   LEXCH  = PE                                                                  
   EATOM  =  1873.4746 eV,  137.6965 Ry                                         
                                                                                
   TITEL  = PAW_PBE Ru_pv 28Jan2005                                             
   LULTRA =        F    use ultrasoft PP ?                                      
   IUNSCR =        1    unscreen: 0-lin 1-nonlin 2-no                           
   RPACOR =    2.170    partial core radius                                     
   POMASS =  101.070; ZVAL   =   14.000    mass and valenz                      
   RCORE  =    2.500    outmost cutoff radius                                   
   RWIGS  =    2.650; RWIGS  =    1.402    wigner-seitz radius (au A)           
   ENMAX  =  240.049; ENMIN  =  180.037 eV                                      
   ICORE  =        3    local potential                                         
   LCOR   =        T    correct aug charges                                     
   LPAW   =        T    paw PP                                                  
   EAUG   =  430.792                                                            
   DEXC   =    0.000                                                            
   RMAX   =    2.546    core radius for proj-oper                               
   RAUG   =    1.300    factor for augmentation sphere                          
   RDEP   =    2.520    radius for radial grids                                 
   RDEPT  =    2.044    core radius for aug-charge                              
                                                                                
   Atomic configuration                                                         
   11 entries                                                                   
     n  l   j            E        occ.                                          
     1  0  0.50    -21933.2692   2.0000                                         
     2  0  0.50     -3153.4096   2.0000                                         
     2  1  1.50     -2823.9548   6.0000                                         
     3  0  0.50      -555.3322   2.0000                                         
     3  1  1.50      -447.1024   6.0000                                         
     3  2  2.50      -273.0570  10.0000                                         
     4  0  0.50       -76.3589   2.0000                                         
     4  1  1.50       -46.4050   6.0000                                         
     4  2  2.50        -5.2029   7.0000                                         
     5  0  0.50        -4.2392   1.0000                                         
     4  3  2.50        -1.3606   0.0000                                         
   Description                                                                  
     l       E           TYP  RCUT    TYP  RCUT                                 
     1    -46.4050190     23  2.100                                             
     1      4.0817478     23  2.100                                             
     2     -5.2028758     23  2.500                                             
     2     -6.5634584     23  2.500                                             
     0     -4.2392192     23  2.500                                             
     0      7.0918828     23  2.500                                             
     3     -5.4423304     23  2.500                                             
  local pseudopotential read in
  partial core-charges read in
  partial kinetic energy density read in
  atomic valenz-charges read in
  non local Contribution for L=           1  read in
    real space projection operators read in
  non local Contribution for L=           1  read in
    real space projection operators read in
  non local Contribution for L=           2  read in
    real space projection operators read in
  non local Contribution for L=           2  read in
    real space projection operators read in
  non local Contribution for L=           0  read in
    real space projection operators read in
  non local Contribution for L=           0  read in
    real space projection operators read in
    PAW grid and wavefunctions read in
 
   number of l-projection  operators is LMAX  =           6
   number of lm-projection operators is LMMAX =          18
 
 Optimization of the real space projectors (new method)

 maximal supplied QI-value         = 34.20
 optimisation between [QCUT,QGAM] = [ 13.34, 27.02] = [ 49.83,204.46] Ry 
 Optimized for a Real-space Cutoff    1.04 Angstroem

   l    n(q)    QCUT    max X(q) W(low)/X(q) W(high)/X(q)  e(spline) 
   0      8    13.340   134.812    0.72E-04    0.21E-03    0.27E-06
   0      8    13.340    80.524    0.70E-04    0.21E-03    0.27E-06
   1      8    13.340    79.026    0.21E-03    0.16E-03    0.33E-06
   1      8    13.340    45.188    0.20E-03    0.15E-03    0.33E-06
 Optimization of the real space projectors (new method)

 maximal supplied QI-value         = 34.20
 optimisation between [QCUT,QGAM] = [ 13.34, 27.02] = [ 49.83,204.46] Ry 
 Optimized for a Real-space Cutoff    1.04 Angstroem

   l    n(q)    QCUT    max X(q) W(low)/X(q) W(high)/X(q)  e(spline) 
   0      8    13.340   134.812    0.72E-04    0.21E-03    0.27E-06
   0      8    13.340    80.524    0.70E-04    0.21E-03    0.27E-06
   1      8    13.340    79.026    0.21E-03    0.16E-03    0.33E-06
   1      8    13.340    45.188    0.20E-03    0.15E-03    0.33E-06
 Optimization of the real space projectors (new method)

 maximal supplied QI-value         = 34.20
 optimisation between [QCUT,QGAM] = [ 13.34, 27.02] = [ 49.83,204.46] Ry 
 Optimized for a Real-space Cutoff    0.98 Angstroem

   l    n(q)    QCUT    max X(q) W(low)/X(q) W(high)/X(q)  e(spline) 
   0      8    13.340    19.460    0.18E-03    0.41E-04    0.19E-06
   0      8    13.340    12.209    0.17E-03    0.45E-04    0.18E-06
   1      7    13.340     4.655    0.16E-03    0.30E-03    0.14E-06
 Optimization of the real space projectors (new method)

 maximal supplied QI-value         = 34.20
 optimisation between [QCUT,QGAM] = [ 13.34, 27.02] = [ 49.83,204.46] Ry 
 Optimized for a Real-space Cutoff    1.04 Angstroem

   l    n(q)    QCUT    max X(q) W(low)/X(q) W(high)/X(q)  e(spline) 
   0      8    13.340   148.539    0.85E-04    0.19E-03    0.21E-06
   0      8    13.340   106.192    0.84E-04    0.19E-03    0.21E-06
   1      8    13.340    73.877    0.18E-03    0.11E-03    0.36E-06
   1      8    13.340    50.042    0.17E-03    0.11E-03    0.36E-06
 Optimization of the real space projectors (new method)

 maximal supplied QI-value         = 34.20
 optimisation between [QCUT,QGAM] = [ 13.34, 27.02] = [ 49.83,204.46] Ry 
 Optimized for a Real-space Cutoff    0.98 Angstroem

   l    n(q)    QCUT    max X(q) W(low)/X(q) W(high)/X(q)  e(spline) 
   0      8    13.340   280.207    0.16E-03    0.35E-03    0.14E-06
   0      8    13.340   228.978    0.16E-03    0.35E-03    0.14E-06
   1      7    13.340    86.127    0.23E-03    0.25E-04    0.30E-06
   1      7    13.340    65.368    0.22E-03    0.27E-04    0.30E-06
 Optimization of the real space projectors (new method)

 maximal supplied QI-value         = 15.12
 optimisation between [QCUT,QGAM] = [ 13.45, 27.06] = [ 50.69,205.06] Ry 
 Optimized for a Real-space Cutoff    1.40 Angstroem

   l    n(q)    QCUT    max X(q) W(low)/X(q) W(high)/X(q)  e(spline) 
   1     11    13.455     3.180    0.18E-04    0.25E-04    0.55E-07
   1     11    13.455     5.351    0.12E-03    0.15E-03    0.24E-06
   2     10    13.455    66.565    0.13E-03    0.46E-04    0.26E-06
   2     10    13.455    63.466    0.13E-03    0.47E-04    0.27E-06
   0     11    13.455    85.644    0.47E-04    0.16E-04    0.33E-06
   0     11    13.455    44.119    0.43E-04    0.15E-04    0.30E-06
  PAW_PBE C_h 06Feb2004                 :
 energy of atom  1       EATOM= -147.1560
 kinetic energy error for atom=    0.0286 (will be added to EATOM!!)
  PAW_PBE C_h 06Feb2004                 :
 energy of atom  2       EATOM= -147.1560
 kinetic energy error for atom=    0.0286 (will be added to EATOM!!)
  PAW_PBE H 15Jun2001                   :
 energy of atom  3       EATOM=  -12.4884
 kinetic energy error for atom=    0.0002 (will be added to EATOM!!)
  PAW_PBE N_h 06Feb2004                 :
 energy of atom  4       EATOM= -264.5486
 kinetic energy error for atom=    0.0847 (will be added to EATOM!!)
  PAW_PBE O_h 06Feb2004                 :
 energy of atom  5       EATOM= -432.3788
 kinetic energy error for atom=    0.1855 (will be added to EATOM!!)
  PAW_PBE Ru_pv 28Jan2005               :
 energy of atom  6       EATOM=-1873.4746
 kinetic energy error for atom=    0.0017 (will be added to EATOM!!)
 
 
 POSCAR: C C H N O Ru                            
  positions in direct lattice
  velocities in cartesian coordinates
 exchange correlation table for  LEXCH =        8
   RHO(1)=    0.500       N(1)  =     2000
   RHO(2)=  100.500       N(2)  =     4000
 


--------------------------------------------------------------------------------------------------------


 ion  position               nearest neighbor table
   1  0.591  0.332  0.689-  27 1.09  10 1.39   7 1.40
   2  0.438  0.566  0.328-  43 1.09   3 1.39   6 1.39
   3  0.456  0.524  0.381-  38 1.09  49 1.36   2 1.39
   4  0.474  0.615  0.450-  34 1.09  49 1.36   5 1.39
   5  0.456  0.660  0.399-  33 1.09   4 1.39   6 1.40
   6  0.438  0.635  0.337-  32 1.09   2 1.39   5 1.40
   7  0.523  0.330  0.675-  26 1.09   8 1.39   1 1.40
   8  0.497  0.372  0.626-  31 1.09  51 1.36   7 1.39
   9  0.602  0.419  0.606-  51 1.37  10 1.40  14 1.47
  10  0.631  0.378  0.654-  28 1.09   1 1.39   9 1.40
  11  0.740  0.529  0.535-  41 1.09  15 1.39  12 1.40
  12  0.701  0.566  0.490-  37 1.09  13 1.39  11 1.40
  13  0.633  0.554  0.487-  47 1.09  53 1.36  12 1.39
  14  0.640  0.469  0.567-  53 1.37  15 1.40   9 1.47
  15  0.708  0.480  0.573-  36 1.09  11 1.39  14 1.40
  16  0.293  0.477  0.568-  45 1.09  25 1.39  17 1.40
  17  0.362  0.489  0.564-  50 1.37  16 1.40  21 1.46
  18  0.408  0.622  0.691-  48 1.09  22 1.39  19 1.40
  19  0.476  0.626  0.677-  44 1.09  20 1.39  18 1.40
  20  0.503  0.586  0.627-  42 1.09  52 1.36  19 1.39
  21  0.398  0.538  0.604-  52 1.38  22 1.40  17 1.46
  22  0.369  0.578  0.654-  30 1.09  18 1.39  21 1.40
  23  0.373  0.406  0.482-  39 1.09  50 1.35  24 1.39
  24  0.305  0.392  0.484-  40 1.09  23 1.39  25 1.40
  25  0.264  0.428  0.528-  46 1.09  16 1.39  24 1.40
  26  0.490  0.295  0.701-   7 1.09
  27  0.613  0.300  0.727-   1 1.09
  28  0.684  0.381  0.665-  10 1.09
  29  0.542  0.362  0.461-  54 0.97
  30  0.316  0.573  0.664-  22 1.09
  31  0.444  0.371  0.614-   8 1.09
  32  0.424  0.668  0.296-   6 1.09
  33  0.456  0.713  0.410-   5 1.09
  34  0.488  0.634  0.499-   4 1.09
  35  0.569  0.418  0.415-  54 0.98
  36  0.738  0.450  0.608-  15 1.09
  37  0.723  0.605  0.459-  12 1.09
  38  0.456  0.470  0.375-   3 1.09
  39  0.406  0.379  0.449-  23 1.09
  40  0.284  0.353  0.452-  24 1.09
  41  0.793  0.537  0.539-  11 1.09
  42  0.556  0.588  0.614-  20 1.09
  43  0.424  0.543  0.280-   2 1.09
  44  0.509  0.660  0.704-  19 1.09
  45  0.263  0.506  0.603-  16 1.09
  46  0.211  0.418  0.531-  25 1.09
  47  0.601  0.582  0.453-  13 1.09
  48  0.385  0.653  0.729-  18 1.09
  49  0.474  0.548  0.441-   4 1.36   3 1.36  55 2.12
  50  0.402  0.453  0.521-  23 1.35  17 1.37  55 2.06
  51  0.535  0.416  0.592-   8 1.36   9 1.37  55 2.06
  52  0.465  0.543  0.590-  20 1.36  21 1.38  55 2.01
  53  0.601  0.507  0.524-  13 1.36  14 1.37  55 2.08
  54  0.531  0.406  0.442-  29 0.97  35 0.98  55 2.24
  55  0.501  0.481  0.519-  52 2.01  50 2.06  51 2.06  53 2.08  49 2.12  54 2.24
 
  LATTYP: Found a simple cubic cell.
 ALAT       =    20.0000000000
  
  Lattice vectors:
  
 A1 = (  20.0000000000,   0.0000000000,   0.0000000000)
 A2 = (   0.0000000000,  20.0000000000,   0.0000000000)
 A3 = (   0.0000000000,   0.0000000000,  20.0000000000)


Analysis of symmetry for initial positions (statically):
=====================================================================
 Subroutine PRICEL returns:
 Original cell was already a primitive cell.
 

 Routine SETGRP: Setting up the symmetry group for a 
 simple cubic supercell.


 Subroutine GETGRP returns: Found  1 space group operations
 (whereof  1 operations were pure point group operations)
 out of a pool of 48 trial point group operations.


The static configuration has the point symmetry C_1 .


Analysis of symmetry for dynamics (positions and initial velocities):
=====================================================================
 Subroutine PRICEL returns:
 Original cell was already a primitive cell.
 

 Routine SETGRP: Setting up the symmetry group for a 
 simple cubic supercell.


 Subroutine GETGRP returns: Found  1 space group operations
 (whereof  1 operations were pure point group operations)
 out of a pool of 48 trial point group operations.


The dynamic configuration has the point symmetry C_1 .


Analysis of constrained symmetry for selective dynamics:
=====================================================================
 Subroutine PRICEL returns:
 Original cell was already a primitive cell.
 

 Routine SETGRP: Setting up the symmetry group for a 
 simple cubic supercell.


 Subroutine GETGRP returns: Found  1 space group operations
 (whereof  1 operations were pure point group operations)
 out of a pool of 48 trial point group operations.


The constrained configuration has the point symmetry C_1 .


Analysis of magnetic symmetry:
=====================================================================
 Subroutine PRICEL returns:
 Original cell was already a primitive cell.
 

 Subroutine MAGSYM returns: Found  1 space group operations
 (whereof  1 operations were pure point group operations)
 out of a pool of  1 trial space group operations
 (whereof  1 operations were pure point group operations)
 and found also     1 'primitive' translations


The magnetic configuration has the point symmetry C_1 .
 
 
 KPOINTS: K-Points                                

Automatic generation of k-mesh.
Space group operators:
 irot       det(A)        alpha          n_x          n_y          n_z        tau_x        tau_y        tau_z
    1     1.000000     0.000000     1.000000     0.000000     0.000000     0.000000     0.000000     0.000000
 
 Subroutine IBZKPT returns following result:
 ===========================================
 
 Found      1 irreducible k-points:
 
 Following reciprocal coordinates:
            Coordinates               Weight
  0.000000  0.000000  0.000000      1.000000
 
 Following cartesian coordinates:
            Coordinates               Weight
  0.000000  0.000000  0.000000      1.000000
 


--------------------------------------------------------------------------------------------------------




 Dimension of arrays:
   k-points           NKPTS =      1   k-points in BZ     NKDIM =      1   number of bands    NBANDS=    128
   number of dos      NEDOS =    301   number of ions     NIONS =     55
   non local maximal  LDIM  =      6   non local SUM 2l+1 LMDIM =     18
   total plane-waves  NPLWV = ******
   max r-space proj   IRMAX =   8473   max aug-charges    IRDMAX= 268848
   dimension x,y,z NGX =   180 NGY =  180 NGZ =  180
   dimension x,y,z NGXF=   360 NGYF=  360 NGZF=  360
   support grid    NGXF=   720 NGYF=  720 NGZF=  720
   ions per type =               1  24  23   5   1   1
 NGX,Y,Z   is equivalent  to a cutoff of  14.96, 14.96, 14.96 a.u.
 NGXF,Y,Z  is equivalent  to a cutoff of  29.92, 29.92, 29.92 a.u.


 I would recommend the setting:
   dimension x,y,z NGX =   173 NGY =  173 NGZ =  173
 SYSTEM =  c2_oh2_ruthenium_mol                    
 POSCAR =  C C H N O Ru                            

 Startparameter for this run:
   NWRITE =      2    write-flag & timer
   PREC   = accura    normal or accurate (medium, high low for compatibility)
   ISTART =      0    job   : 0-new  1-cont  2-samecut
   ICHARG =      2    charge: 1-file 2-atom 10-const
   ISPIN  =      2    spin polarized calculation?
   LNONCOLLINEAR =      F non collinear calculations
   LSORBIT =      F    spin-orbit coupling
   INIWAV =      1    electr: 0-lowe 1-rand  2-diag
   LASPH  =      F    aspherical Exc in radial PAW
   METAGGA=      F    non-selfconsistent MetaGGA calc.

 Electronic Relaxation 1
   ENCUT  =  700.0 eV  51.45 Ry    7.17 a.u.  43.15 43.15 43.15*2*pi/ulx,y,z
   ENINI  =  700.0     initial cutoff
   ENAUG  =  946.8 eV  augmentation charge cutoff
   NELM   =     60;   NELMIN=  2; NELMDL= -5     # of ELM steps 
   EDIFF  = 0.1E-04   stopping-criterion for ELM
   LREAL  =      T    real-space projection
   NLSPLINE    = F    spline interpolate recip. space projectors
   LCOMPAT=      F    compatible to vasp.4.4
   GGA_COMPAT  = T    GGA compatible to vasp.4.4-vasp.4.6
   LMAXPAW     = -100 max onsite density
   LMAXMIX     =    2 max onsite mixed and CHGCAR
   VOSKOWN=      0    Vosko Wilk Nusair interpolation
   ROPT   =   -0.00025  -0.00025  -0.00025  -0.00025
   ROPT   =   -0.00025  -0.00025
 Ionic relaxation
   EDIFFG = -.1E-01   stopping-criterion for IOM
   NSW    =      0    number of steps for IOM
   NBLOCK =      1;   KBLOCK =      1    inner block; outer block 
   IBRION =     -1    ionic relax: 0-MD 1-quasi-New 2-CG
   NFREE  =      0    steps in history (QN), initial steepest desc. (CG)
   ISIF   =      2    stress and relaxation
   IWAVPR =     10    prediction:  0-non 1-charg 2-wave 3-comb
   ISYM   =      2    0-nonsym 1-usesym 2-fastsym
   LCORR  =      T    Harris-Foulkes like correction to forces

   POTIM  = 0.5000    time-step for ionic-motion
   TEIN   =    0.0    initial temperature
   TEBEG  =    0.0;   TEEND  =   0.0 temperature during run
   SMASS  =  -3.00    Nose mass-parameter (am)
   estimated Nose-frequenzy (Omega)   =  0.10E-29 period in steps =****** mass=  -0.914E-26a.u.
   SCALEE = 1.0000    scale energy and forces
   NPACO  =    256;   APACO  = 16.0  distance and # of slots for P.C.
   PSTRESS=    0.0 pullay stress

  Mass of Ions in am
   POMASS =  12.01 12.01  1.00 14.00 16.00101.07
  Ionic Valenz
   ZVAL   =   4.50  4.00  1.00  5.00  6.00 14.00
  Atomic Wigner-Seitz radii
   RWIGS  =  -1.00 -1.00 -1.00 -1.00 -1.00 -1.00
  virtual crystal weights 
   VCA    =   1.00  1.00  1.00  1.00  1.00  1.00
   NELECT =     166.0000    total number of electrons
   NUPDOWN=       0.0000    fix difference up-down

 DOS related values:
   EMIN   =  10.00;   EMAX   =-10.00  energy-range for DOS
   EFERMI =   0.00
   ISMEAR =     0;   SIGMA  =   0.01  broadening in eV -4-tet -1-fermi 0-gaus

 Electronic relaxation 2 (details)
   IALGO  =     38    algorithm
   LDIAG  =      T    sub-space diagonalisation (order eigenvalues)
   LSUBROT=      F    optimize rotation matrix (better conditioning)
   TURBO    =      0    0=normal 1=particle mesh
   IRESTART =      0    0=no restart 2=restart with 2 vectors
   NREBOOT  =      0    no. of reboots
   NMIN     =      0    reboot dimension
   EREF     =   0.00    reference energy to select bands
   IMIX   =      4    mixing-type and parameters
     AMIX     =   0.40;   BMIX     =  2.00
     AMIX_MAG =   1.60;   BMIX_MAG =  2.00
     AMIN     =   0.10
     WC   =   100.;   INIMIX=   1;  MIXPRE=   1;  MAXMIX= -45

 Intra band minimization:
   WEIMIN = 0.0000     energy-eigenvalue tresh-hold
   EBREAK =  0.20E-07  absolut break condition
   DEPER  =   0.30     relativ break condition  

   TIME   =   0.05     timestep for ELM

  volume/ion in A,a.u.               =     145.45       981.58
  Fermi-wavevector in a.u.,A,eV,Ry     =   0.449864  0.850119  2.753510  0.202377
  Thomas-Fermi vector in A             =   1.430192
 
 Write flags
   LWAVE  =      T    write WAVECAR
   LCHARG =      T    write CHGCAR
   LVTOT  =      F    write LOCPOT, total local potential
   LVHAR  =      F    write LOCPOT, Hartree potential only
   LELF   =      F    write electronic localiz. function (ELF)
   LORBIT =      0    0 simple, 1 ext, 2 COOP (PROOUT)


 Dipole corrections
   LMONO  =      F    monopole corrections only (constant potential shift)
   LDIPOL =      F    correct potential (dipole corrections)
   IDIPOL =      0    1-x, 2-y, 3-z, 4-all directions 
   EPSILON=  1.0000000 bulk dielectric constant

 Core level calculations are selected ICORELEVEL =  2
  CLNT =           1       CLN =     1
  CLL  =           0       CLZ = 0.500
 Exchange correlation treatment:
   GGA     =    --    GGA type
   LEXCH   =     8    internal setting for exchange type
   VOSKOWN=      0    Vosko Wilk Nusair interpolation
   LHFCALC =     F    Hartree Fock is set to
   LHFONE  =     F    Hartree Fock one center treatment
   AEXX    =    0.0000 exact exchange contribution

 Linear response parameters
   LEPSILON=     F    determine dielectric tensor
   LRPA    =     F    only Hartree local field effects (RPA)
   LNABLA  =     F    use nabla operator in PAW spheres
   LVEL    =     F    velocity operator in full k-point grid
   LINTERFAST=   F  fast interpolation
   KINTER  =     0    interpolate to denser k-point grid
   CSHIFT  =0.1000    complex shift for real part using Kramers Kronig
   OMEGAMAX=  -1.0    maximum frequency
   DEG_THRESHOLD= 0.2000000E-02 threshold for treating states as degnerate
   RTIME   =    0.100 relaxation time in fs

 Orbital magnetization related:
   ORBITALMAG=     F  switch on orbital magnetization
   LCHIMAG   =     F  perturbation theory with respect to B field
   DQ        =  0.001000  dq finite difference perturbation B field



--------------------------------------------------------------------------------------------------------


 Static calculation
 charge density and potential will be updated during run
 spin polarized calculation
 Variant of blocked Davidson
 Davidson routine will perform the subspace rotation
 perform sub-space diagonalisation
    after iterative eigenvector-optimisation
 modified Broyden-mixing scheme, WC =      100.0
 initial mixing is a Kerker type mixing with AMIX =  0.4000 and BMIX =      2.0000
 Hartree-type preconditioning will be used
 using additional bands           45
 real space projection scheme for non local part
 use partial core corrections
 calculate Harris-corrections to forces 
   (improved forces if not selfconsistent)
 use gradient corrections 
 use of overlap-Matrix (Vanderbilt PP)
 Gauss-broadening in eV      SIGMA  =   0.01


--------------------------------------------------------------------------------------------------------


  energy-cutoff  :      700.00
  volume of cell :     8000.00
      direct lattice vectors                 reciprocal lattice vectors
    20.000000000  0.000000000  0.000000000     0.050000000  0.000000000  0.000000000
     0.000000000 20.000000000  0.000000000     0.000000000  0.050000000  0.000000000
     0.000000000  0.000000000 20.000000000     0.000000000  0.000000000  0.050000000

  length of vectors
    20.000000000 20.000000000 20.000000000     0.050000000  0.050000000  0.050000000


 
 k-points in units of 2pi/SCALE and weight: K-Points                                
   0.00000000  0.00000000  0.00000000       1.000
 
 k-points in reciprocal lattice and weights: K-Points                                
   0.00000000  0.00000000  0.00000000       1.000
 
 position of ions in fractional coordinates (direct lattice) 
   0.59134754  0.33224398  0.68903016
   0.43793752  0.56561110  0.32757008
   0.45581208  0.52423376  0.38051465
   0.47372925  0.61530131  0.44986522
   0.45595175  0.65963312  0.39935201
   0.43785737  0.63472201  0.33675972
   0.52307882  0.32955005  0.67474498
   0.49710163  0.37190466  0.62618823
   0.60227374  0.41933300  0.60593616
   0.63096398  0.37761922  0.65422416
   0.73964927  0.52855915  0.53463181
   0.70082162  0.56612858  0.49044049
   0.63257913  0.55363620  0.48652424
   0.63952130  0.46927713  0.56732841
   0.70843899  0.47974495  0.57314689
   0.29334713  0.47671938  0.56830116
   0.36211554  0.48866484  0.56417415
   0.40790931  0.62211625  0.69058213
   0.47619960  0.62606623  0.67660612
   0.50295190  0.58590820  0.62668073
   0.39825425  0.53800137  0.60426081
   0.36904589  0.57756069  0.65398228
   0.37289802  0.40579857  0.48223443
   0.30486503  0.39173492  0.48443166
   0.26422003  0.42785518  0.52821594
   0.48989745  0.29510618  0.70074864
   0.61334240  0.29968355  0.72673159
   0.68424189  0.38076917  0.66478776
   0.54225374  0.36233861  0.46129841
   0.31579090  0.57306911  0.66420366
   0.44416348  0.37118871  0.61364770
   0.42392665  0.66833230  0.29622671
   0.45642762  0.71313270  0.40950260
   0.48809132  0.63358802  0.49907234
   0.56912778  0.41808713  0.41480476
   0.73767440  0.44963919  0.60776512
   0.72277620  0.60481012  0.45904817
   0.45570253  0.47012894  0.37468790
   0.40614333  0.37888556  0.44852541
   0.28443799  0.35306162  0.45202062
   0.79326502  0.53703787  0.53892527
   0.55589708  0.58769132  0.61440612
   0.42412006  0.54328620  0.27986105
   0.50894741  0.65984570  0.70400156
   0.26265982  0.50568523  0.60265428
   0.21072272  0.41813760  0.53105039
   0.60090654  0.58197914  0.45254259
   0.38544357  0.65296704  0.72941133
   0.47424490  0.54794204  0.44140236
   0.40180479  0.45306079  0.52108436
   0.53520702  0.41608490  0.59173240
   0.46544808  0.54254992  0.59041194
   0.60138410  0.50650621  0.52397638
   0.53073984  0.40562607  0.44215451
   0.50088568  0.48087016  0.51934246
 
 position of ions in cartesian coordinates  (Angst):
  11.82695089  6.64487969 13.78060313
   8.75875044 11.31222209  6.55140167
   9.11624161 10.48467523  7.61029296
   9.47458509 12.30602619  8.99730442
   9.11903505 13.19266234  7.98704025
   8.75714739 12.69444028  6.73519441
  10.46157638  6.59100110 13.49489953
   9.94203263  7.43809325 12.52376455
  12.04547477  8.38665999 12.11872314
  12.61927957  7.55238445 13.08448329
  14.79298537 10.57118301 10.69263621
  14.01643234 11.32257164  9.80880974
  12.65158254 11.07272405  9.73048485
  12.79042597  9.38554253 11.34656829
  14.16877978  9.59489901 11.46293786
   5.86694270  9.53438759 11.36602327
   7.24231077  9.77329687 11.28348299
   8.15818611 12.44232505 13.81164268
   9.52399198 12.52132464 13.53212240
  10.05903801 11.71816400 12.53361469
   7.96508499 10.76002740 12.08521614
   7.38091777 11.55121387 13.07964553
   7.45796037  8.11597149  9.64468853
   6.09730063  7.83469839  9.68863321
   5.28440067  8.55710369 10.56431882
   9.79794892  5.90212351 14.01497288
  12.26684793  5.99367109 14.53463185
  13.68483783  7.61538334 13.29575520
  10.84507475  7.24677213  9.22596819
   6.31581791 11.46138226 13.28407311
   8.88326966  7.42377422 12.27295397
   8.47853309 13.36664601  5.92453423
   9.12855243 14.26265408  8.19005201
   9.76182647 12.67176037  9.98144677
  11.38255564  8.36174255  8.29609511
  14.75348806  8.99278384 12.15530242
  14.45552391 12.09620238  9.18096343
   9.11405064  9.40257887  7.49375804
   8.12286663  7.57771114  8.97050829
   5.68875982  7.06123239  9.04041232
  15.86530045 10.74075733 10.77850539
  11.11794158 11.75382641 12.28812234
   8.48240128 10.86572407  5.59722093
  10.17894811 13.19691406 14.08003122
   5.25319634 10.11370460 12.05308551
   4.21445446  8.36275200 10.62100772
  12.01813087 11.63958272  9.05085175
   7.70887141 13.05934086 14.58822659
   9.48489793 10.95884088  8.82804729
   8.03609572  9.06121573 10.42168714
  10.70414049  8.32169803 11.83464804
   9.30896151 10.85099836 11.80823871
  12.02768196 10.13012430 10.47952760
  10.61479684  8.11252146  8.84309019
  10.01771355  9.61740316 10.38684921
 


--------------------------------------------------------------------------------------------------------


 k-point  1 :   0.0000 0.0000 0.0000  plane waves:  336427

 maximum and minimum number of plane-waves per node :    336427   336427

 maximum number of plane-waves:    336427
 maximum index in each direction: 
   IXMAX=   43   IYMAX=   43   IZMAX=   43
   IXMIN=  -43   IYMIN=  -43   IZMIN=  -43

 NGX is ok and might be reduce to 174
 NGY is ok and might be reduce to 174
 NGZ is ok and might be reduce to 174

 serial   3D FFT for wavefunctions
 parallel 3D FFT for charge:
    minimum data exchange during FFTs selected (reduces bandwidth)


 total amount of memory used by VASP on root node   877132. kBytes
========================================================================

   base      :      30000. kBytes
   nonlr-proj:      19361. kBytes
   fftplans  :     269516. kBytes
   grid      :     534988. kBytes
   one-center:       1710. kBytes
   wavefun   :      21557. kBytes
 
     INWAV:  cpu time    0.00: real time    0.00
 Broyden mixing: mesh for mixing (old mesh)
   NGX = 87   NGY = 87   NGZ = 87
  (NGX  =360   NGY  =360   NGZ  =360)
  gives a total of 658503 points

 initial charge density was supplied:
 charge density of overlapping atoms calculated
 number of electron     168.5000000 magnetization       0.0000000
 keeping initial charge density in first step


--------------------------------------------------------------------------------------------------------


 Maximum index for non-local projection operator         8166
 Maximum index for augmentation-charges         3214 (set IRDMAX)


--------------------------------------------------------------------------------------------------------


 First call to EWALD:  gamma=   0.089
 Maximum number of real-space cells 3x 3x 3
 Maximum number of reciprocal cells 3x 3x 3

 FEWALD executed in parallel
    FEWALD:  cpu time    0.00: real time    0.00


----------------------------------------- Iteration    1(   1)  ---------------------------------------


    POTLOK:  cpu time    4.74: real time    4.77
    SETDIJ:  cpu time    2.83: real time    2.83
     EDDAV:  cpu time   14.93: real time   15.89
       DOS:  cpu time    0.02: real time    0.02
    --------------------------------------------
      LOOP:  cpu time   22.52: real time   23.52

 eigenvalue-minimisations  :   768
 total energy-change (2. order) : 0.9093510E+03  (-0.5881045E+04)
 number of electron     168.5000000 magnetization       0.0000000
 augmentation part      168.5000000 magnetization       0.0000000

 Free energy of the ion-electron system (eV)
  ---------------------------------------------------
  alpha Z        PSCENC =        12.91687988
  Ewald energy   TEWEN  =     23262.91430050
  -Hartree energ DENC   =    -28865.22054250
  -exchange      EXHF   =         0.00000000
  -V(xc)+E(xc)   XCENC  =       400.93209937
  PAW double counting   =      5890.45591622    -5710.10246236
  entropy T*S    EENTRO =        -0.00000438
  eigenvalues    EBANDS =     -1675.94506025
  atomic energy  EATOM  =      7593.39991119
  ---------------------------------------------------
  free energy    TOTEN  =       909.35103768 eV

  energy without entropy =      909.35104206  energy(sigma->0) =      909.35103987


--------------------------------------------------------------------------------------------------------




----------------------------------------- Iteration    1(   2)  ---------------------------------------


     EDDAV:  cpu time   19.26: real time   20.28
       DOS:  cpu time    0.01: real time    0.01
    --------------------------------------------
      LOOP:  cpu time   19.27: real time   20.29

 eigenvalue-minimisations  :  1024
 total energy-change (2. order) :-0.9775015E+03  (-0.9708855E+03)
 number of electron     168.5000000 magnetization       0.0000000
 augmentation part      168.5000000 magnetization       0.0000000

 Free energy of the ion-electron system (eV)
  ---------------------------------------------------
  alpha Z        PSCENC =        12.91687988
  Ewald energy   TEWEN  =     23262.91430050
  -Hartree energ DENC   =    -28865.22054250
  -exchange      EXHF   =         0.00000000
  -V(xc)+E(xc)   XCENC  =       400.93209937
  PAW double counting   =      5890.45591622    -5710.10246236
  entropy T*S    EENTRO =        -0.00000000
  eigenvalues    EBANDS =     -2653.44654160
  atomic energy  EATOM  =      7593.39991119
  ---------------------------------------------------
  free energy    TOTEN  =       -68.15043929 eV

  energy without entropy =      -68.15043929  energy(sigma->0) =      -68.15043929


--------------------------------------------------------------------------------------------------------




----------------------------------------- Iteration    1(   3)  ---------------------------------------


     EDDAV:  cpu time   16.03: real time   16.97
       DOS:  cpu time    0.01: real time    0.01
    --------------------------------------------
      LOOP:  cpu time   16.04: real time   16.98

 eigenvalue-minimisations  :   832
 total energy-change (2. order) :-0.3252005E+03  (-0.3247727E+03)
 number of electron     168.5000000 magnetization       0.0000000
 augmentation part      168.5000000 magnetization       0.0000000

 Free energy of the ion-electron system (eV)
  ---------------------------------------------------
  alpha Z        PSCENC =        12.91687988
  Ewald energy   TEWEN  =     23262.91430050
  -Hartree energ DENC   =    -28865.22054250
  -exchange      EXHF   =         0.00000000
  -V(xc)+E(xc)   XCENC  =       400.93209937
  PAW double counting   =      5890.45591622    -5710.10246236
  entropy T*S    EENTRO =        -0.00000000
  eigenvalues    EBANDS =     -2978.64708222
  atomic energy  EATOM  =      7593.39991119
  ---------------------------------------------------
  free energy    TOTEN  =      -393.35097991 eV

  energy without entropy =     -393.35097991  energy(sigma->0) =     -393.35097991


--------------------------------------------------------------------------------------------------------




----------------------------------------- Iteration    1(   4)  ---------------------------------------


     EDDAV:  cpu time   12.83: real time   13.52
       DOS:  cpu time    0.00: real time    0.00
    --------------------------------------------
      LOOP:  cpu time   12.83: real time   13.52

 eigenvalue-minimisations  :   640
 total energy-change (2. order) :-0.1894054E+02  (-0.1891726E+02)
 number of electron     168.5000000 magnetization       0.0000000
 augmentation part      168.5000000 magnetization       0.0000000

 Free energy of the ion-electron system (eV)
  ---------------------------------------------------
  alpha Z        PSCENC =        12.91687988
  Ewald energy   TEWEN  =     23262.91430050
  -Hartree energ DENC   =    -28865.22054250
  -exchange      EXHF   =         0.00000000
  -V(xc)+E(xc)   XCENC  =       400.93209937
  PAW double counting   =      5890.45591622    -5710.10246236
  entropy T*S    EENTRO =        -0.00000000
  eigenvalues    EBANDS =     -2997.58761876
  atomic energy  EATOM  =      7593.39991119
  ---------------------------------------------------
  free energy    TOTEN  =      -412.29151645 eV

  energy without entropy =     -412.29151645  energy(sigma->0) =     -412.29151645


--------------------------------------------------------------------------------------------------------




----------------------------------------- Iteration    1(   5)  ---------------------------------------


     EDDAV:  cpu time   16.91: real time   17.90
       DOS:  cpu time    0.01: real time    0.01
    CHARGE:  cpu time    5.07: real time    5.09
    MIXING:  cpu time    0.23: real time    0.23
    --------------------------------------------
      LOOP:  cpu time   22.23: real time   23.23

 eigenvalue-minimisations  :   896
 total energy-change (2. order) :-0.2562266E+00  (-0.2561227E+00)
 number of electron     166.0000000 magnetization       0.0000000
 augmentation part        3.6347593 magnetization      -0.0000161

 Broyden mixing:
  rms(total) = 0.57090E+01    rms(broyden)= 0.57083E+01
  rms(prec ) = 0.60757E+01
  weight for this iteration     100.00

 Free energy of the ion-electron system (eV)
  ---------------------------------------------------
  alpha Z        PSCENC =        12.91687988
  Ewald energy   TEWEN  =     23262.91430050
  -Hartree energ DENC   =    -28865.22054250
  -exchange      EXHF   =         0.00000000
  -V(xc)+E(xc)   XCENC  =       400.93209937
  PAW double counting   =      5890.45591622    -5710.10246236
  entropy T*S    EENTRO =        -0.00000000
  eigenvalues    EBANDS =     -2997.84384541
  atomic energy  EATOM  =      7593.39991119
  ---------------------------------------------------
  free energy    TOTEN  =      -412.54774310 eV

  energy without entropy =     -412.54774310  energy(sigma->0) =     -412.54774310


--------------------------------------------------------------------------------------------------------




----------------------------------------- Iteration    1(   6)  ---------------------------------------


    POTLOK:  cpu time    4.71: real time    4.74
    SETDIJ:  cpu time    2.83: real time    2.83
     EDDAV:  cpu time   11.96: real time   12.66
       DOS:  cpu time    0.08: real time    0.08
    CHARGE:  cpu time    5.38: real time    5.40
    MIXING:  cpu time    0.08: real time    0.09
    --------------------------------------------
      LOOP:  cpu time   25.04: real time   25.80

 eigenvalue-minimisations  :   576
 total energy-change (2. order) : 0.1947542E+02  (-0.3333439E+02)
 number of electron     166.0000000 magnetization      -0.0000000
 augmentation part        6.4341093 magnetization      -0.0009896

 Broyden mixing:
  rms(total) = 0.38156E+01    rms(broyden)= 0.38155E+01
  rms(prec ) = 0.39802E+01
  weight for this iteration     100.00

 eigenvalues of (default mixing * dielectric matrix)
  average eigenvalue GAMMA=   1.0851
  1.0851

 Free energy of the ion-electron system (eV)
  ---------------------------------------------------
  alpha Z        PSCENC =        12.91687988
  Ewald energy   TEWEN  =     23262.91430050
  -Hartree energ DENC   =    -28874.05642356
  -exchange      EXHF   =         0.00000000
  -V(xc)+E(xc)   XCENC  =       406.54505144
  PAW double counting   =     20881.32486026   -20713.56841617
  entropy T*S    EENTRO =        -0.00000000
  eigenvalues    EBANDS =     -2962.54849158
  atomic energy  EATOM  =      7593.39991119
  ---------------------------------------------------
  free energy    TOTEN  =      -393.07232803 eV

  energy without entropy =     -393.07232803  energy(sigma->0) =     -393.07232803


--------------------------------------------------------------------------------------------------------




----------------------------------------- Iteration    1(   7)  ---------------------------------------


    POTLOK:  cpu time    4.59: real time    4.61
    SETDIJ:  cpu time    2.74: real time    2.84
     EDDAV:  cpu time   13.94: real time   14.83
       DOS:  cpu time    0.06: real time    0.06
    CHARGE:  cpu time    5.22: real time    5.23
    MIXING:  cpu time    0.07: real time    0.07
    --------------------------------------------
      LOOP:  cpu time   26.62: real time   27.64

 eigenvalue-minimisations  :   704
 total energy-change (2. order) : 0.1025941E+02  (-0.2370331E+01)
 number of electron     166.0000000 magnetization      -0.0000000
 augmentation part        5.5255078 magnetization       0.0004812

 Broyden mixing:
  rms(total) = 0.23337E+01    rms(broyden)= 0.23337E+01
  rms(prec ) = 0.24024E+01
  weight for this iteration     100.00

 eigenvalues of (default mixing * dielectric matrix)
  average eigenvalue GAMMA=   1.4740
  0.7615  2.1864

 Free energy of the ion-electron system (eV)
  ---------------------------------------------------
  alpha Z        PSCENC =        12.91687988
  Ewald energy   TEWEN  =     23262.91430050
  -Hartree energ DENC   =    -29005.71814803
  -exchange      EXHF   =         0.00000000
  -V(xc)+E(xc)   XCENC  =       412.04007319
  PAW double counting   =     36839.90344900   -36667.42135910
  entropy T*S    EENTRO =        -0.00000000
  eigenvalues    EBANDS =     -2830.84802826
  atomic energy  EATOM  =      7593.39991119
  ---------------------------------------------------
  free energy    TOTEN  =      -382.81292163 eV

  energy without entropy =     -382.81292163  energy(sigma->0) =     -382.81292163


--------------------------------------------------------------------------------------------------------




----------------------------------------- Iteration    1(   8)  ---------------------------------------


    POTLOK:  cpu time    4.60: real time    4.62
    SETDIJ:  cpu time    2.81: real time    2.81
     EDDAV:  cpu time   15.46: real time   16.73
       DOS:  cpu time    0.05: real time    0.05
    CHARGE:  cpu time    5.26: real time    5.28
    MIXING:  cpu time    0.07: real time    0.07
    --------------------------------------------
      LOOP:  cpu time   28.25: real time   29.55

 eigenvalue-minimisations  :   768
 total energy-change (2. order) : 0.4044846E+01  (-0.1718239E+01)
 number of electron     166.0000000 magnetization      -0.0000000
 augmentation part        4.8097901 magnetization       0.0001969

 Broyden mixing:
  rms(total) = 0.94121E+00    rms(broyden)= 0.94117E+00
  rms(prec ) = 0.10355E+01
  weight for this iteration     100.00

 eigenvalues of (default mixing * dielectric matrix)
  average eigenvalue GAMMA=   1.4600
  2.7008  0.8396  0.8396

 Free energy of the ion-electron system (eV)
  ---------------------------------------------------
  alpha Z        PSCENC =        12.91687988
  Ewald energy   TEWEN  =     23262.91430050
  -Hartree energ DENC   =    -29160.13857657
  -exchange      EXHF   =         0.00000000
  -V(xc)+E(xc)   XCENC  =       420.13788733
  PAW double counting   =     71167.91470199   -70992.53791947
  entropy T*S    EENTRO =        -0.00000000
  eigenvalues    EBANDS =     -2683.37526090
  atomic energy  EATOM  =      7593.39991119
  ---------------------------------------------------
  free energy    TOTEN  =      -378.76807605 eV

  energy without entropy =     -378.76807605  energy(sigma->0) =     -378.76807605


--------------------------------------------------------------------------------------------------------




----------------------------------------- Iteration    1(   9)  ---------------------------------------


    POTLOK:  cpu time    4.59: real time    4.61
    SETDIJ:  cpu time    2.83: real time    2.84
     EDDAV:  cpu time   15.01: real time   16.53
       DOS:  cpu time    0.05: real time    0.05
    CHARGE:  cpu time    5.29: real time    5.32
    MIXING:  cpu time    0.15: real time    0.15
    --------------------------------------------
      LOOP:  cpu time   27.92: real time   29.49

 eigenvalue-minimisations  :   768
 total energy-change (2. order) : 0.1111054E+01  (-0.7294283E+00)
 number of electron     166.0000000 magnetization      -0.0000000
 augmentation part        5.2859964 magnetization       0.0000034

 Broyden mixing:
  rms(total) = 0.35998E+00    rms(broyden)= 0.35994E+00
  rms(prec ) = 0.39951E+00
  weight for this iteration     100.00

 eigenvalues of (default mixing * dielectric matrix)
  average eigenvalue GAMMA=   1.3158
  2.5301  1.1848  0.7741  0.7741

 Free energy of the ion-electron system (eV)
  ---------------------------------------------------
  alpha Z        PSCENC =        12.91687988
  Ewald energy   TEWEN  =     23262.91430050
  -Hartree energ DENC   =    -29171.82851883
  -exchange      EXHF   =         0.00000000
  -V(xc)+E(xc)   XCENC  =       422.48150678
  PAW double counting   =     82811.12857010   -82637.90020722
  entropy T*S    EENTRO =        -0.00000000
  eigenvalues    EBANDS =     -2670.76946407
  atomic energy  EATOM  =      7593.39991119
  ---------------------------------------------------
  free energy    TOTEN  =      -377.65702165 eV

  energy without entropy =     -377.65702165  energy(sigma->0) =     -377.65702165


--------------------------------------------------------------------------------------------------------




----------------------------------------- Iteration    1(  10)  ---------------------------------------


    POTLOK:  cpu time    4.60: real time    4.62
    SETDIJ:  cpu time    2.81: real time    2.81
     EDDAV:  cpu time   15.39: real time   16.63
       DOS:  cpu time    0.05: real time    0.05
    CHARGE:  cpu time    5.28: real time    5.28
    MIXING:  cpu time    0.09: real time    0.09
    --------------------------------------------
      LOOP:  cpu time   28.22: real time   29.48

 eigenvalue-minimisations  :   768
 total energy-change (2. order) : 0.3464472E-01  (-0.2669165E-01)
 number of electron     166.0000000 magnetization      -0.0000000
 augmentation part        5.3462091 magnetization      -0.0000284

 Broyden mixing:
  rms(total) = 0.25753E+00    rms(broyden)= 0.25753E+00
  rms(prec ) = 0.30375E+00
  weight for this iteration     100.00

 eigenvalues of (default mixing * dielectric matrix)
  average eigenvalue GAMMA=   1.3031
  2.4452  1.6548  0.7699  0.7699  0.8758

 Free energy of the ion-electron system (eV)
  ---------------------------------------------------
  alpha Z        PSCENC =        12.91687988
  Ewald energy   TEWEN  =     23262.91430050
  -Hartree energ DENC   =    -29161.09760624
  -exchange      EXHF   =         0.00000000
  -V(xc)+E(xc)   XCENC  =       422.45619727
  PAW double counting   =     81342.29710279   -81169.35471818
  entropy T*S    EENTRO =        -0.00000000
  eigenvalues    EBANDS =     -2681.15444415
  atomic energy  EATOM  =      7593.39991119
  ---------------------------------------------------
  free energy    TOTEN  =      -377.62237693 eV

  energy without entropy =     -377.62237693  energy(sigma->0) =     -377.62237693


--------------------------------------------------------------------------------------------------------




----------------------------------------- Iteration    1(  11)  ---------------------------------------


    POTLOK:  cpu time    4.60: real time    4.62
    SETDIJ:  cpu time    2.82: real time    2.82
     EDDAV:  cpu time   17.29: real time   18.65
       DOS:  cpu time    0.05: real time    0.05
    CHARGE:  cpu time    5.27: real time    5.28
    MIXING:  cpu time    0.08: real time    0.08
    --------------------------------------------
      LOOP:  cpu time   30.10: real time   31.50

 eigenvalue-minimisations  :   896
 total energy-change (2. order) : 0.1271175E+00  (-0.1496316E-01)
 number of electron     166.0000000 magnetization      -0.0000000
 augmentation part        5.2954852 magnetization       0.0000027

 Broyden mixing:
  rms(total) = 0.12665E+00    rms(broyden)= 0.12665E+00
  rms(prec ) = 0.16931E+00
  weight for this iteration     100.00

 eigenvalues of (default mixing * dielectric matrix)
  average eigenvalue GAMMA=   1.3999
  2.4873  2.4873  1.0596  0.8411  0.8411  0.6832

 Free energy of the ion-electron system (eV)
  ---------------------------------------------------
  alpha Z        PSCENC =        12.91687988
  Ewald energy   TEWEN  =     23262.91430050
  -Hartree energ DENC   =    -29160.21267755
  -exchange      EXHF   =         0.00000000
  -V(xc)+E(xc)   XCENC  =       423.07106789
  PAW double counting   =     81778.10852911   -81604.95742360
  entropy T*S    EENTRO =        -0.00000000
  eigenvalues    EBANDS =     -2682.73584682
  atomic energy  EATOM  =      7593.39991119
  ---------------------------------------------------
  free energy    TOTEN  =      -377.49525938 eV

  energy without entropy =     -377.49525938  energy(sigma->0) =     -377.49525938


--------------------------------------------------------------------------------------------------------




----------------------------------------- Iteration    1(  12)  ---------------------------------------


    POTLOK:  cpu time    4.61: real time    4.63
    SETDIJ:  cpu time    2.83: real time    2.83
     EDDAV:  cpu time   15.36: real time   16.63
       DOS:  cpu time    0.05: real time    0.05
    CHARGE:  cpu time    5.23: real time    5.25
    MIXING:  cpu time    0.10: real time    0.10
    --------------------------------------------
      LOOP:  cpu time   28.18: real time   29.48

 eigenvalue-minimisations  :   768
 total energy-change (2. order) : 0.7802081E-01  (-0.1024589E-01)
 number of electron     166.0000000 magnetization      -0.0000000
 augmentation part        5.2516360 magnetization      -0.0000281

 Broyden mixing:
  rms(total) = 0.71014E-01    rms(broyden)= 0.71010E-01
  rms(prec ) = 0.10515E+00
  weight for this iteration     100.00

 eigenvalues of (default mixing * dielectric matrix)
  average eigenvalue GAMMA=   1.4143
  2.7695  2.7695  1.0256  1.0256  0.8318  0.8318  0.6465

 Free energy of the ion-electron system (eV)
  ---------------------------------------------------
  alpha Z        PSCENC =        12.91687988
  Ewald energy   TEWEN  =     23262.91430050
  -Hartree energ DENC   =    -29157.30000115
  -exchange      EXHF   =         0.00000000
  -V(xc)+E(xc)   XCENC  =       423.67657538
  PAW double counting   =     81878.04797953   -81704.77470427
  entropy T*S    EENTRO =        -0.00000000
  eigenvalues    EBANDS =     -2686.29817965
  atomic energy  EATOM  =      7593.39991119
  ---------------------------------------------------
  free energy    TOTEN  =      -377.41723858 eV

  energy without entropy =     -377.41723858  energy(sigma->0) =     -377.41723858


--------------------------------------------------------------------------------------------------------




----------------------------------------- Iteration    1(  13)  ---------------------------------------


    POTLOK:  cpu time    4.61: real time    4.63
    SETDIJ:  cpu time    2.84: real time    2.84
     EDDAV:  cpu time   15.11: real time   16.49
       DOS:  cpu time    0.06: real time    0.06
    CHARGE:  cpu time    5.26: real time    5.27
    MIXING:  cpu time    0.13: real time    0.13
    --------------------------------------------
      LOOP:  cpu time   27.99: real time   29.41

 eigenvalue-minimisations  :   768
 total energy-change (2. order) : 0.2512547E-01  (-0.1787615E-02)
 number of electron     166.0000000 magnetization      -0.0000000
 augmentation part        5.2504109 magnetization       0.0000135

 Broyden mixing:
  rms(total) = 0.53294E-01    rms(broyden)= 0.53293E-01
  rms(prec ) = 0.79844E-01
  weight for this iteration     100.00

 eigenvalues of (default mixing * dielectric matrix)
  average eigenvalue GAMMA=   1.5388
  3.1210  3.1210  1.5406  1.1115  1.1115  0.8380  0.8380  0.6290

 Free energy of the ion-electron system (eV)
  ---------------------------------------------------
  alpha Z        PSCENC =        12.91687988
  Ewald energy   TEWEN  =     23262.91430050
  -Hartree energ DENC   =    -29151.32680547
  -exchange      EXHF   =         0.00000000
  -V(xc)+E(xc)   XCENC  =       423.95305823
  PAW double counting   =     81412.81326543   -81239.59381891
  entropy T*S    EENTRO =        -0.00000000
  eigenvalues    EBANDS =     -2692.46890396
  atomic energy  EATOM  =      7593.39991119
  ---------------------------------------------------
  free energy    TOTEN  =      -377.39211311 eV

  energy without entropy =     -377.39211311  energy(sigma->0) =     -377.39211311


--------------------------------------------------------------------------------------------------------




----------------------------------------- Iteration    1(  14)  ---------------------------------------


    POTLOK:  cpu time    4.60: real time    4.62
    SETDIJ:  cpu time    2.83: real time    2.84
     EDDAV:  cpu time   15.38: real time   16.64
       DOS:  cpu time    0.04: real time    0.04
    CHARGE:  cpu time    5.17: real time    5.18
    MIXING:  cpu time    0.15: real time    0.15
    --------------------------------------------
      LOOP:  cpu time   28.18: real time   29.46

 eigenvalue-minimisations  :   768
 total energy-change (2. order) : 0.1504118E-01  (-0.2182352E-02)
 number of electron     166.0000000 magnetization      -0.0000000
 augmentation part        5.2590511 magnetization      -0.0000059

 Broyden mixing:
  rms(total) = 0.30845E-01    rms(broyden)= 0.30843E-01
  rms(prec ) = 0.47130E-01
  weight for this iteration     100.00

 eigenvalues of (default mixing * dielectric matrix)
  average eigenvalue GAMMA=   1.6150
  4.3870  2.6198  2.0027  1.3654  0.8337  0.8337  0.9329  0.9329  0.6268

 Free energy of the ion-electron system (eV)
  ---------------------------------------------------
  alpha Z        PSCENC =        12.91687988
  Ewald energy   TEWEN  =     23262.91430050
  -Hartree energ DENC   =    -29140.58017204
  -exchange      EXHF   =         0.00000000
  -V(xc)+E(xc)   XCENC  =       424.26131851
  PAW double counting   =     80981.16825698   -80808.05624519
  entropy T*S    EENTRO =        -0.00000000
  eigenvalues    EBANDS =     -2703.40132176
  atomic energy  EATOM  =      7593.39991119
  ---------------------------------------------------
  free energy    TOTEN  =      -377.37707192 eV

  energy without entropy =     -377.37707192  energy(sigma->0) =     -377.37707192


--------------------------------------------------------------------------------------------------------




----------------------------------------- Iteration    1(  15)  ---------------------------------------


    POTLOK:  cpu time    4.60: real time    4.63
    SETDIJ:  cpu time    2.82: real time    2.82
     EDDAV:  cpu time   15.26: real time   16.56
       DOS:  cpu time    0.05: real time    0.05
    CHARGE:  cpu time    5.32: real time    5.32
    MIXING:  cpu time    0.10: real time    0.10
    --------------------------------------------
      LOOP:  cpu time   28.16: real time   29.49

 eigenvalue-minimisations  :   768
 total energy-change (2. order) :-0.1956896E-02  (-0.8181567E-03)
 number of electron     166.0000000 magnetization      -0.0000000
 augmentation part        5.2570725 magnetization       0.0000098

 Broyden mixing:
  rms(total) = 0.23001E-01    rms(broyden)= 0.23000E-01
  rms(prec ) = 0.32097E-01
  weight for this iteration     100.00

 eigenvalues of (default mixing * dielectric matrix)
  average eigenvalue GAMMA=   1.6516
  4.9651  2.3545  2.3545  1.4743  1.1368  1.1368  0.8385  0.8385  0.7908  0.6264

 Free energy of the ion-electron system (eV)
  ---------------------------------------------------
  alpha Z        PSCENC =        12.91687988
  Ewald energy   TEWEN  =     23262.91430050
  -Hartree energ DENC   =    -29131.88629743
  -exchange      EXHF   =         0.00000000
  -V(xc)+E(xc)   XCENC  =       424.41505223
  PAW double counting   =     81050.85287795   -80877.74447678
  entropy T*S    EENTRO =        -0.00000000
  eigenvalues    EBANDS =     -2712.24727637
  atomic energy  EATOM  =      7593.39991119
  ---------------------------------------------------
  free energy    TOTEN  =      -377.37902882 eV

  energy without entropy =     -377.37902882  energy(sigma->0) =     -377.37902882


--------------------------------------------------------------------------------------------------------




----------------------------------------- Iteration    1(  16)  ---------------------------------------


    POTLOK:  cpu time    4.62: real time    4.64
    SETDIJ:  cpu time    2.84: real time    2.84
     EDDAV:  cpu time   15.37: real time   16.64
       DOS:  cpu time    0.04: real time    0.04
    CHARGE:  cpu time    5.26: real time    5.26
    MIXING:  cpu time    0.19: real time    0.19
    --------------------------------------------
      LOOP:  cpu time   28.33: real time   29.62

 eigenvalue-minimisations  :   768
 total energy-change (2. order) :-0.9612134E-02  (-0.1972969E-03)
 number of electron     166.0000000 magnetization      -0.0000000
 augmentation part        5.2565013 magnetization      -0.0000108

 Broyden mixing:
  rms(total) = 0.12534E-01    rms(broyden)= 0.12534E-01
  rms(prec ) = 0.18820E-01
  weight for this iteration     100.00

 eigenvalues of (default mixing * dielectric matrix)
  average eigenvalue GAMMA=   1.7263
  5.6692  2.6066  2.6066  1.7791  1.4140  0.8428  0.8428  0.9340  0.9340  0.6262
  0.7347

 Free energy of the ion-electron system (eV)
  ---------------------------------------------------
  alpha Z        PSCENC =        12.91687988
  Ewald energy   TEWEN  =     23262.91430050
  -Hartree energ DENC   =    -29123.39549271
  -exchange      EXHF   =         0.00000000
  -V(xc)+E(xc)   XCENC  =       424.39734898
  PAW double counting   =     81174.72371991   -81001.58715875
  entropy T*S    EENTRO =        -0.00000000
  eigenvalues    EBANDS =     -2720.75814996
  atomic energy  EATOM  =      7593.39991119
  ---------------------------------------------------
  free energy    TOTEN  =      -377.38864095 eV

  energy without entropy =     -377.38864095  energy(sigma->0) =     -377.38864095


--------------------------------------------------------------------------------------------------------




----------------------------------------- Iteration    1(  17)  ---------------------------------------


    POTLOK:  cpu time    4.63: real time    4.65
    SETDIJ:  cpu time    2.84: real time    2.84
     EDDAV:  cpu time   15.17: real time   16.45
       DOS:  cpu time    0.06: real time    0.06
    CHARGE:  cpu time    5.29: real time    5.29
    MIXING:  cpu time    0.14: real time    0.14
    --------------------------------------------
      LOOP:  cpu time   28.12: real time   29.42

 eigenvalue-minimisations  :   768
 total energy-change (2. order) :-0.6633282E-02  (-0.1262452E-03)
 number of electron     166.0000000 magnetization      -0.0000000
 augmentation part        5.2591522 magnetization       0.0000069

 Broyden mixing:
  rms(total) = 0.88647E-02    rms(broyden)= 0.88645E-02
  rms(prec ) = 0.12140E-01
  weight for this iteration     100.00

 eigenvalues of (default mixing * dielectric matrix)
  average eigenvalue GAMMA=   1.7613
  6.3737  2.7645  2.7645  1.7910  1.5111  0.8377  0.8377  1.0284  1.0284  0.9110
  0.6238  0.6631

 Free energy of the ion-electron system (eV)
  ---------------------------------------------------
  alpha Z        PSCENC =        12.91687988
  Ewald energy   TEWEN  =     23262.91430050
  -Hartree energ DENC   =    -29116.86360872
  -exchange      EXHF   =         0.00000000
  -V(xc)+E(xc)   XCENC  =       424.35137269
  PAW double counting   =     81218.97406023   -81045.83098158
  entropy T*S    EENTRO =        -0.00000000
  eigenvalues    EBANDS =     -2727.25720843
  atomic energy  EATOM  =      7593.39991119
  ---------------------------------------------------
  free energy    TOTEN  =      -377.39527423 eV

  energy without entropy =     -377.39527423  energy(sigma->0) =     -377.39527423


--------------------------------------------------------------------------------------------------------




----------------------------------------- Iteration    1(  18)  ---------------------------------------


    POTLOK:  cpu time    4.62: real time    4.65
    SETDIJ:  cpu time    2.86: real time    2.86
     EDDAV:  cpu time   15.37: real time   16.62
       DOS:  cpu time    0.06: real time    0.06
    CHARGE:  cpu time    5.24: real time    5.24
    MIXING:  cpu time    0.26: real time    0.25
    --------------------------------------------
      LOOP:  cpu time   28.40: real time   29.68

 eigenvalue-minimisations  :   768
 total energy-change (2. order) :-0.4050352E-02  (-0.4183815E-04)
 number of electron     166.0000000 magnetization      -0.0000000
 augmentation part        5.2603602 magnetization      -0.0000062

 Broyden mixing:
  rms(total) = 0.62204E-02    rms(broyden)= 0.62203E-02
  rms(prec ) = 0.84465E-02
  weight for this iteration     100.00

 eigenvalues of (default mixing * dielectric matrix)
[...]
 12.559   0.000  21.154   0.000   0.003   0.000  -0.004   0.000  -0.001   0.000   0.006   0.000  -0.006   0.000  -0.003   0.000
 21.154   0.000  35.629   0.000   0.005   0.000  -0.006   0.000  -0.002   0.000   0.010   0.000  -0.011   0.000  -0.004   0.000
  0.003   0.000   0.005   0.000  -3.540   0.000   0.000   0.000  -0.000   0.000  -6.362   0.000   0.001   0.000  -0.000   0.000
 -0.004   0.000  -0.006   0.000   0.000   0.000  -3.540   0.000  -0.000   0.000   0.001   0.000  -6.362   0.000  -0.000   0.000
 -0.001   0.000  -0.002   0.000  -0.000   0.000  -0.000   0.000  -3.540   0.000  -0.000   0.000  -0.000   0.000  -6.363   0.000
  0.006   0.000   0.010   0.000  -6.362   0.000   0.001   0.000  -0.000   0.000 -11.411   0.000   0.002   0.000  -0.001   0.000
 -0.006   0.000  -0.011   0.000   0.001   0.000  -6.362   0.000  -0.000   0.000   0.002   0.000 -11.411   0.000  -0.000   0.000
 -0.003   0.000  -0.004   0.000  -0.000   0.000  -0.000   0.000  -6.363   0.000  -0.001   0.000  -0.000   0.000 -11.413   0.000
 pseudopotential strength for first ion, spin component:           2
 12.559   0.000  21.154   0.000   0.003   0.000  -0.004   0.000  -0.001   0.000   0.006   0.000  -0.006   0.000  -0.003   0.000
 21.154   0.000  35.629   0.000   0.005   0.000  -0.006   0.000  -0.002   0.000   0.010   0.000  -0.011   0.000  -0.004   0.000
  0.003   0.000   0.005   0.000  -3.540   0.000   0.000   0.000  -0.000   0.000  -6.362   0.000   0.001   0.000  -0.000   0.000
 -0.004   0.000  -0.006   0.000   0.000   0.000  -3.540   0.000  -0.000   0.000   0.001   0.000  -6.362   0.000  -0.000   0.000
 -0.001   0.000  -0.002   0.000  -0.000   0.000  -0.000   0.000  -3.540   0.000  -0.000   0.000  -0.000   0.000  -6.363   0.000
  0.006   0.000   0.010   0.000  -6.362   0.000   0.001   0.000  -0.000   0.000 -11.411   0.000   0.002   0.000  -0.001   0.000
 -0.006   0.000  -0.011   0.000   0.001   0.000  -6.362   0.000  -0.000   0.000   0.002   0.000 -11.411   0.000  -0.000   0.000
 -0.003   0.000  -0.004   0.000  -0.000   0.000  -0.000   0.000  -6.363   0.000  -0.001   0.000  -0.000   0.000 -11.413   0.000
 total augmentation occupancy for first ion, spin component:           1
  1.013  -0.074   0.347  -0.391  -0.200  -0.124   0.141   0.077
 -0.074   0.369  -0.154   0.174   0.091   0.040  -0.046  -0.029
  0.347  -0.154   1.828  -0.991   0.415  -0.176   0.271  -0.138
 -0.391   0.174  -0.991   1.738   0.160   0.271  -0.142  -0.031
 -0.200   0.091   0.415   0.160   3.001  -0.138  -0.031  -0.536
 -0.124   0.040  -0.176   0.271  -0.138   0.096  -0.017   0.028
  0.141  -0.046   0.271  -0.142  -0.031  -0.017   0.087  -0.007
  0.077  -0.029  -0.138  -0.031  -0.536   0.028  -0.007   0.152
 total augmentation occupancy for first ion, spin component:           2
  0.000  -0.000   0.000  -0.000   0.000  -0.000   0.000   0.000
 -0.000  -0.000  -0.000   0.000   0.000   0.000  -0.000  -0.000
  0.000  -0.000   0.000   0.000   0.000  -0.000   0.000  -0.000
 -0.000   0.000   0.000   0.000  -0.000   0.000  -0.000   0.000
  0.000   0.000   0.000  -0.000   0.000  -0.000   0.000  -0.000
 -0.000   0.000  -0.000   0.000  -0.000  -0.000  -0.000   0.000
  0.000  -0.000   0.000  -0.000   0.000  -0.000  -0.000   0.000
  0.000  -0.000  -0.000   0.000  -0.000   0.000   0.000   0.000


------------------------ aborting loop because EDIFF is reached ----------------------------------------


    CHARGE:  cpu time    5.26: real time    5.26
    FORLOC:  cpu time    0.54: real time    0.54
    FORNL :  cpu time   19.57: real time   19.60
    STRESS:  cpu time   62.59: real time   62.68
    FORCOR:  cpu time    4.26: real time    4.27
    FORHAR:  cpu time    1.00: real time    1.00
    MIXING:  cpu time    0.20: real time    0.20
    OFIELD:  cpu time    0.00: real time    0.00

  FORCE on cell =-STRESS in cart. coord.  units (eV):
  Direction    XX          YY          ZZ          XY          YZ          ZX
  --------------------------------------------------------------------------------------
  Alpha Z    12.91688    12.91688    12.91688
  Ewald   11135.59340  5606.80609  6520.50038   364.00450 -1623.08709   926.99849
  Hartree 12505.31755  7815.68961  8786.09989    85.30257 -1467.24043   737.69316
  E(xc)    -688.90454  -691.45297  -692.11278     1.43151    -0.20417     0.67828
  Local  -26013.59274-15826.73770-17730.44540  -427.81347  3085.58901 -1663.69418
  n-local   -28.51535   -28.51308   -32.07679     3.63177    -1.28840    -0.89709
  augment    83.56876    84.03523    82.69113     1.81944    -0.06402     0.15657
  Kinetic  2978.90452  3012.61760  3037.56515   -28.34086     8.25524    -1.49041
  Fock        0.00000     0.00000     0.00000     0.00000     0.00000     0.00000
  -------------------------------------------------------------------------------------
  Total     -14.71152   -14.63834   -14.86155     0.03547     1.96013    -0.55518
  in kB      -2.94631    -2.93165    -2.97635     0.00710     0.39256    -0.11119
  external pressure =       -2.95 kB  Pullay stress =        0.00 kB


 VOLUME and BASIS-vectors are now :
 -----------------------------------------------------------------------------
  energy-cutoff  :      700.00
  volume of cell :     8000.00
      direct lattice vectors                 reciprocal lattice vectors
    20.000000000  0.000000000  0.000000000     0.050000000  0.000000000  0.000000000
     0.000000000 20.000000000  0.000000000     0.000000000  0.050000000  0.000000000
     0.000000000  0.000000000 20.000000000     0.000000000  0.000000000  0.050000000

  length of vectors
    20.000000000 20.000000000 20.000000000     0.050000000  0.050000000  0.050000000


 FORCES acting on ions
    electron-ion (+dipol)            ewald-force                    non-local-force                 convergence-correction
 -----------------------------------------------------------------------------------------------
   -.137E+03 0.260E+03 -.268E+03   0.138E+03 -.262E+03 0.270E+03   -.883E+00 0.209E+01 -.234E+01   0.734E-04 -.739E-04 0.632E-04
   0.879E+02 -.914E+01 0.333E+03   -.885E+02 0.943E+01 -.335E+03   0.664E+00 -.294E+00 0.186E+01   -.185E-06 -.272E-04 -.401E-04
   0.679E+02 0.802E+02 0.318E+03   -.701E+02 -.824E+02 -.324E+03   0.219E+01 0.208E+01 0.644E+01   0.126E-04 -.423E-04 0.612E-04
   0.384E+01 -.317E+03 0.298E+02   -.411E+01 0.324E+03 -.293E+02   0.280E+00 -.702E+01 -.477E+00   0.624E-05 -.659E-04 0.358E-04
   0.363E+02 -.325E+03 0.105E+03   -.366E+02 0.327E+03 -.105E+03   0.364E+00 -.180E+01 0.655E+00   0.124E-04 0.260E-04 -.736E-05
   0.804E+02 -.208E+03 0.263E+03   -.809E+02 0.209E+03 -.265E+03   0.537E+00 -.113E+01 0.140E+01   -.130E-05 0.452E-04 -.651E-04
   0.849E+02 0.268E+03 -.216E+03   -.897E+02 -.269E+03 0.217E+03   0.557E+01 0.150E+01 -.191E+00   -.541E-04 -.584E-04 0.298E-04
   0.154E+03 0.254E+03 -.162E+03   -.159E+03 -.258E+03 0.165E+03   0.499E+01 0.396E+01 -.274E+01   -.765E-04 0.418E-04 -.528E-04
   -.226E+03 0.120E+03 -.135E+03   0.231E+03 -.120E+03 0.136E+03   -.502E+01 -.861E-01 -.154E+01   0.340E-04 0.690E-04 -.725E-04
   -.263E+03 0.136E+03 -.176E+03   0.267E+03 -.135E+03 0.175E+03   -.417E+01 -.229E+01 0.109E+01   0.877E-04 0.280E-04 -.328E-04
   -.338E+03 -.700E+02 -.593E+00   0.340E+03 0.707E+02 0.397E+00   -.211E+01 -.707E+00 0.185E+00   0.590E-04 0.190E-04 -.682E-05
   -.258E+03 -.193E+03 0.137E+03   0.259E+03 0.194E+03 -.138E+03   -.148E+01 -.133E+01 0.856E+00   0.354E-04 0.445E-04 -.420E-04
   -.181E+03 -.214E+03 0.187E+03   0.184E+03 0.219E+03 -.191E+03   -.321E+01 -.524E+01 0.424E+01   -.290E-04 -.396E-05 -.284E-04
   -.265E+03 0.631E+02 -.915E+02   0.270E+03 -.641E+02 0.938E+02   -.519E+01 0.110E+01 -.224E+01   -.239E-04 -.913E-05 -.195E-04
   -.315E+03 0.605E+02 -.112E+03   0.317E+03 -.601E+02 0.112E+03   -.236E+01 -.486E+00 -.111E+00   -.637E-05 -.255E-04 0.905E-05
   0.323E+03 -.351E+02 -.116E+03   -.325E+03 0.349E+02 0.117E+03   0.239E+01 0.215E+00 -.263E+00   0.185E-04 0.315E-04 0.343E-04
   0.271E+03 -.296E+02 -.103E+03   -.277E+03 0.314E+02 0.106E+03   0.512E+01 -.180E+01 -.267E+01   0.541E-04 0.545E-04 -.820E-06
   0.127E+03 -.218E+03 -.261E+03   -.128E+03 0.219E+03 0.262E+03   0.710E+00 -.131E+01 -.157E+01   -.526E-04 0.550E-04 0.401E-04
   -.741E+02 -.256E+03 -.246E+03   0.744E+02 0.257E+03 0.247E+03   -.295E+00 -.149E+01 -.152E+01   -.269E-04 0.507E-04 0.230E-04
   -.157E+03 -.237E+03 -.196E+03   0.161E+03 0.242E+03 0.200E+03   -.395E+01 -.484E+01 -.416E+01   -.114E-04 -.220E-04 -.399E-04
   0.233E+03 -.964E+02 -.158E+03   -.238E+03 0.973E+02 0.160E+03   0.575E+01 -.928E+00 -.268E+01   -.144E-04 -.119E-04 -.517E-04
   0.265E+03 -.124E+03 -.200E+03   -.266E+03 0.126E+03 0.202E+03   0.130E+01 -.126E+01 -.179E+01   -.320E-04 0.168E-05 -.289E-04
   0.148E+03 0.264E+03 0.193E+03   -.151E+03 -.269E+03 -.197E+03   0.341E+01 0.487E+01 0.410E+01   0.284E-04 0.186E-04 -.280E-04
   0.241E+03 0.223E+03 0.143E+03   -.243E+03 -.224E+03 -.144E+03   0.159E+01 0.116E+01 0.822E+00   -.271E-04 -.479E-04 -.531E-04
   0.337E+03 0.954E+02 0.330E+01   -.339E+03 -.960E+02 -.348E+01   0.194E+01 0.521E+00 0.159E+00   -.488E-04 -.312E-04 0.107E-04
   0.466E+02 0.809E+02 -.636E+02   -.502E+02 -.848E+02 0.666E+02   0.376E+01 0.384E+01 -.289E+01   -.140E-04 -.244E-04 0.151E-04
   -.446E+02 0.736E+02 -.804E+02   0.466E+02 -.767E+02 0.840E+02   -.254E+01 0.377E+01 -.437E+01   0.127E-04 -.247E-04 0.199E-04
   -.100E+03 0.271E+02 -.481E+02   0.106E+03 -.268E+02 0.494E+02   -.594E+01 -.333E+00 -.120E+01   0.157E-04 -.209E-05 -.233E-05
   -.406E+02 0.149E+03 0.161E+02   0.424E+02 -.157E+03 -.128E+02   -.179E+01 0.756E+01 -.334E+01   -.117E-04 0.363E-04 -.811E-06
   0.101E+03 -.225E+02 -.517E+02   -.107E+03 0.221E+02 0.529E+02   0.582E+01 0.409E+00 -.121E+01   -.847E-05 0.820E-05 0.592E-05
   0.805E+02 0.676E+02 -.314E+02   -.864E+02 -.678E+02 0.300E+02   0.593E+01 0.964E-01 0.138E+01   -.523E-05 0.945E-05 -.924E-05
   0.266E+02 -.663E+02 0.813E+02   -.282E+02 0.701E+02 -.858E+02   0.154E+01 -.371E+01 0.448E+01   -.521E-05 0.251E-04 -.337E-04
   0.593E+01 -.110E+03 0.887E+01   -.589E+01 0.116E+03 -.779E+01   -.331E-01 -.588E+01 -.107E+01   0.105E-05 0.258E-04 -.826E-05
   -.141E+02 -.101E+03 -.343E+02   0.157E+02 0.103E+03 0.397E+02   -.154E+01 -.210E+01 -.539E+01   -.228E-05 -.149E-04 0.181E-05
   -.101E+03 0.257E+02 0.116E+03   0.108E+03 -.235E+02 -.121E+03   -.651E+01 -.229E+01 0.485E+01   -.217E-04 0.131E-04 0.223E-04
   -.917E+02 0.383E+02 -.534E+02   0.950E+02 -.415E+02 0.571E+02   -.332E+01 0.321E+01 -.374E+01   0.685E-05 -.592E-06 -.271E-05
   -.660E+02 -.714E+02 0.547E+02   0.685E+02 0.757E+02 -.582E+02   -.246E+01 -.427E+01 0.346E+01   0.158E-04 0.109E-04 -.941E-05
   0.175E+02 0.710E+02 0.885E+02   -.175E+02 -.769E+02 -.892E+02   0.516E-01 0.596E+01 0.731E+00   0.292E-05 -.304E-05 0.117E-04
   0.423E+01 0.903E+02 0.774E+02   -.649E+00 -.934E+02 -.812E+02   -.358E+01 0.300E+01 0.375E+01   0.268E-05 0.433E-05 -.519E-05
   0.603E+02 0.770E+02 0.571E+02   -.626E+02 -.813E+02 -.607E+02   0.229E+01 0.426E+01 0.356E+01   -.157E-04 -.171E-04 -.143E-04
   -.105E+03 -.198E+02 -.444E+01   0.111E+03 0.207E+02 0.491E+01   -.594E+01 -.955E+00 -.463E+00   0.297E-04 0.103E-04 -.386E-05
   -.836E+02 -.641E+02 -.381E+02   0.895E+02 0.644E+02 0.368E+02   -.588E+01 -.258E+00 0.130E+01   -.233E-05 -.824E-05 -.100E-04
   0.286E+02 0.211E+02 0.104E+03   -.301E+02 -.236E+02 -.109E+03   0.153E+01 0.241E+01 0.525E+01   -.430E-05 -.396E-05 -.285E-04
   -.453E+02 -.784E+02 -.699E+02   0.489E+02 0.822E+02 0.729E+02   -.358E+01 -.374E+01 -.304E+01   -.512E-05 0.208E-04 0.153E-04
   0.946E+02 -.331E+02 -.542E+02   -.981E+02 0.363E+02 0.580E+02   0.345E+01 -.312E+01 -.372E+01   -.787E-05 0.377E-05 0.963E-05
   0.105E+03 0.252E+02 -.235E+01   -.111E+03 -.263E+02 0.265E+01   0.591E+01 0.108E+01 -.303E+00   -.313E-04 -.153E-04 0.322E-05
   -.228E+02 -.759E+02 0.739E+02   0.194E+02 0.791E+02 -.777E+02   0.345E+01 -.319E+01 0.380E+01   -.459E-06 -.599E-05 -.115E-05
   0.432E+02 -.659E+02 -.804E+02   -.457E+02 0.693E+02 0.847E+02   0.248E+01 -.342E+01 -.430E+01   -.145E-04 0.220E-04 0.227E-04
   0.309E+02 -.139E+03 0.222E+03   -.261E+02 0.127E+03 -.208E+03   -.479E+01 0.119E+02 -.145E+02   0.248E-04 -.130E-03 0.132E-03
   0.232E+03 0.163E+03 0.624E+02   -.213E+03 -.160E+03 -.640E+02   -.194E+02 -.328E+01 0.160E+01   0.127E-03 0.106E-03 -.323E-05
   -.400E+02 0.232E+03 -.158E+03   0.305E+02 -.219E+03 0.143E+03   0.929E+01 -.129E+02 0.147E+02   -.258E-04 0.137E-03 -.140E-03
   0.389E+02 -.196E+03 -.196E+03   -.316E+02 0.187E+03 0.184E+03   -.744E+01 0.913E+01 0.123E+02   -.172E-04 -.108E-03 -.141E-03
   -.253E+03 -.962E+02 0.683E+02   0.232E+03 0.940E+02 -.704E+02   0.209E+02 0.216E+01 0.212E+01   -.113E-03 -.672E-04 -.162E-04
   -.123E+03 0.404E+03 0.423E+03   0.828E+02 -.386E+03 -.425E+03   0.397E+02 -.173E+02 0.272E+01   -.539E-04 0.184E-03 0.133E-03
   -.728E+02 0.128E+03 0.231E+03   0.713E+02 -.125E+03 -.227E+03   0.175E+01 -.339E+01 -.364E+01   -.112E-04 0.182E-04 -.176E-03
 -----------------------------------------------------------------------------------------------
   -.412E+02 0.258E+02 -.104E+02   0.426E-13 0.483E-12 0.284E-13   0.412E+02 -.258E+02 0.104E+02   -.115E-03 0.277E-03 -.476E-03
 
 
 POSITION                                       TOTAL-FORCE (eV/Angst)
 -----------------------------------------------------------------------------------
     11.82695      6.64488     13.78060         0.005519      0.173545     -0.170578
      8.75875     11.31222      6.55140         0.002381     -0.006031      0.005625
      9.11624     10.48468      7.61029         0.000007     -0.061390      0.009640
      9.47459     12.30603      8.99730         0.016057      0.014602      0.044317
      9.11904     13.19266      7.98704         0.004600     -0.000812      0.008870
      8.75715     12.69444      6.73519         0.001986     -0.004397      0.007285
     10.46158      6.59100     13.49490         0.817379      0.088820      0.122648
      9.94203      7.43809     12.52376         0.064977     -0.078202      0.130002
     12.04547      8.38666     12.11872         0.117735      0.041270     -0.025637
     12.61928      7.55238     13.08448        -0.609089     -0.653048      0.499559
     14.79299     10.57118     10.69264         0.032215      0.019026     -0.011092
     14.01643     11.32257      9.80881         0.044667     -0.026799      0.038479
     12.65158     11.07272      9.73048        -0.075972     -0.032701      0.017603
     12.79043      9.38554     11.34657         0.101785      0.017972      0.010044
     14.16878      9.59490     11.46294        -0.023358     -0.037141      0.034766
      5.86694      9.53439     11.36602         0.006147      0.013084      0.013228
      7.24231      9.77330     11.28348        -0.000559     -0.008699     -0.024446
      8.15819     12.44233     13.81164         0.020465     -0.010420     -0.020411
      9.52399     12.52132     13.53212         0.006563      0.010528      0.016412
     10.05904     11.71816     12.53361         0.006313     -0.021710     -0.035608
      7.96508     10.76003     12.08522         0.021877     -0.009278     -0.028405
      7.38092     11.55121     13.07965        -0.012148     -0.003100     -0.002472
      7.45796      8.11597      9.64469         0.048057      0.000878     -0.000916
      6.09730      7.83470      9.68863        -0.023435     -0.002736      0.007297
      5.28440      8.55710     10.56432         0.017376     -0.010693     -0.014289
      9.79795      5.90212     14.01497         0.159527     -0.049050      0.084217
     12.26685      5.99367     14.53463        -0.474768      0.696136     -0.805962
     13.68484      7.61538     13.29576        -0.054343     -0.121333      0.112168
     10.84507      7.24677      9.22597        -0.014523     -0.009081     -0.066697
      6.31582     11.46138     13.28407        -0.000881      0.006843     -0.002345
      8.88327      7.42377     12.27295         0.013455     -0.061983      0.060459
      8.47853     13.36665      5.92453        -0.003488      0.005018     -0.001016
      9.12855     14.26265      8.19005         0.004347     -0.001318      0.003541
      9.76183     12.67176      9.98145        -0.001041      0.016623     -0.005850
     11.38256      8.36174      8.29610         0.001473     -0.006152     -0.048555
     14.75349      8.99278     12.15530         0.051409      0.013746     -0.002155
     14.45552     12.09620      9.18096         0.009207      0.002805     -0.005099
      9.11405      9.40258      7.49376        -0.013521     -0.001442     -0.016515
      8.12287      7.57771      8.97051        -0.005203     -0.005591     -0.013484
      5.68876      7.06123      9.04041        -0.000246     -0.004858     -0.003751
     15.86530     10.74076     10.77851         0.000675     -0.000489      0.003196
     11.11794     11.75383     12.28812         0.006492      0.016743      0.001522
      8.48240     10.86572      5.59722        -0.003973     -0.003634      0.006666
     10.17895     13.19691     14.08003         0.001787      0.004670     -0.001838
      5.25320     10.11370     12.05309        -0.004141     -0.000775     -0.003384
      4.21445      8.36275     10.62101        -0.005450     -0.000186     -0.002924
     12.01813     11.63958      9.05085        -0.002856     -0.005297      0.001021
      7.70887     13.05934     14.58823        -0.003617      0.008682      0.006195
      9.48490     10.95884      8.82805        -0.020611      0.041028     -0.000761
      8.03610      9.06122     10.42169        -0.112501     -0.039034      0.010325
     10.70414      8.32170     11.83465        -0.233219      0.251021     -0.266102
      9.30896     10.85100     11.80824        -0.113040      0.150305      0.151233
     12.02768     10.13012     10.47953        -0.007463     -0.020405      0.003387
     10.61480      8.11252      8.84309         0.009410      0.045441      0.044491
     10.01771      9.61740     10.38685         0.225558     -0.341002      0.126094
 -----------------------------------------------------------------------------------
    total drift:                                0.006150     -0.003178      0.002856


--------------------------------------------------------------------------------------------------------



  FREE ENERGIE OF THE ION-ELECTRON SYSTEM (eV)
  ---------------------------------------------------
  free  energy   TOTEN  =      -377.41068757 eV

  energy  without entropy=     -377.41068757  energy(sigma->0) =     -377.41068757
 


--------------------------------------------------------------------------------------------------------


    POTLOK:  cpu time    7.68: real time    7.70


--------------------------------------------------------------------------------------------------------


 writing wavefunctions
     LOOP+:  cpu time 1016.23: real time 1054.16
    4ORBIT:  cpu time    0.00: real time    0.00

 total amount of memory used by VASP on root node   877132. kBytes
========================================================================

   base      :      30000. kBytes
   nonlr-proj:      19361. kBytes
   fftplans  :     269516. kBytes
   grid      :     534988. kBytes
   one-center:       1710. kBytes
   wavefun   :      21557. kBytes
 
  
  
 General timing and accounting informations for this job:
 ========================================================
  
                  Total CPU time used (sec):     1271.139
                            User time (sec):     1122.559
                          System time (sec):      148.579
                         Elapsed time (sec):     1311.846
  
                   Maximum memory used (kb):     1489852.
                   Average memory used (kb):           0.
  
                          Minor page faults:      6846919
                          Major page faults:            1
                 Voluntary context switches:       274316
