<?xml version="1.0" encoding="ISO-8859-1"?>
<modeling>
 <generator>
  <i name="program" type="string">vasp </i>
  <i name="version" type="string">5.3.5  </i>
  <i name="subversion" type="string">31Mar14 (build Apr 08 2014 12:00:03) complex                          parallel </i>
  <i name="platform" type="string">NSC-NSCPATCH-BUILD02 </i>
  <i name="date" type="string">2017 03 15 </i>
  <i name="time" type="string">18:51:12 </i>
 </generator>
 <incar>
  <i type="string" name="SYSTEM"> c2_oh2_ruthenium_mol</i>
  <i type="int" name="ISTART">     0</i>
  <i type="string" name="PREC">accurate</i>
  <i type="int" name="IALGO">    38</i>
  <i type="logical" name="ADDGRID"> T  </i>
  <i type="int" name="ISPIN">     2</i>
  <i name="BMIX">      2.00000000</i>
  <i type="int" name="ICHARG">     2</i>
  <i name="EDIFF">      0.00001000</i>
  <i name="EDIFFG">     -0.01000000</i>
  <i name="ENCUT">    700.00000000</i>
  <i name="POTIM">      0.50000000</i>
  <i name="NUPDOWN">      0.00000000</i>
  <i name="NELECT">    166.00000000</i>
  <i type="string" name="LREAL"> Auto</i>
  <i name="TIME">      0.05000000</i>
  <i type="int" name="ISMEAR">     0</i>
  <i name="SIGMA">      0.01000000</i>
  <i type="int" name="ICORELEVEL">     2</i>
  <i type="int" name="CLNT">     1</i>
  <i type="int" name="CLN">     1</i>
  <i type="int" name="INCAR     ">     0</i>
  <i name="CLZ">      0.50000000</i>
 </incar>
 <kpoints>
  <generation param="Monkhorst-Pack">
   <v type="int" name="divisions">       1        1        1 </v>
   <v name="usershift">      0.00000000       0.00000000       0.00000000 </v>
   <v name="genvec1">      1.00000000       0.00000000       0.00000000 </v>
   <v name="genvec2">      0.00000000       1.00000000       0.00000000 </v>
   <v name="genvec3">      0.00000000       0.00000000       1.00000000 </v>
   <v name="shift">      0.00000000       0.00000000       0.00000000 </v>
  </generation>
  <varray name="kpointlist" >
   <v>       0.00000000       0.00000000       0.00000000 </v>
  </varray>
  <varray name="weights" >
   <v>       1.00000000 </v>
  </varray>
 </kpoints>
 <parameters>
  <separator name="general" >
   <i type="string" name="SYSTEM">c2_oh2_ruthenium_mol</i>
   <i type="logical" name="LCOMPAT"> F  </i>
  </separator>
  <separator name="electronic" >
   <i type="string" name="PREC">accura</i>
   <i name="ENMAX">    700.00000000</i>
   <i name="ENAUG">    946.76800000</i>
   <i name="EDIFF">      0.00001000</i>
   <i type="int" name="IALGO">    38</i>
   <i type="int" name="IWAVPR">    10</i>
   <i type="int" name="NBANDS">   128</i>
   <i name="NELECT">    166.00000000</i>
   <i type="int" name="TURBO">     0</i>
   <i type="int" name="IRESTART">     0</i>
   <i type="int" name="NREBOOT">     0</i>
   <i type="int" name="NMIN">     0</i>
   <i name="EREF">      0.00000000</i>
   <separator name="electronic smearing" >
    <i type="int" name="ISMEAR">     0</i>
    <i name="SIGMA">      0.01000000</i>
    <i name="KSPACING">      0.50000000</i>
    <i type="logical" name="KGAMMA"> T  </i>
   </separator>
   <separator name="electronic projectors" >
    <i type="logical" name="LREAL"> T  </i>
    <v name="ROPT">     -0.00025000     -0.00025000     -0.00025000     -0.00025000     -0.00025000     -0.00025000</v>
    <i type="int" name="LMAXPAW">  -100</i>
    <i type="int" name="LMAXMIX">     2</i>
    <i type="logical" name="NLSPLINE"> F  </i>
   </separator>
   <separator name="electronic startup" >
    <i type="int" name="ISTART">     0</i>
    <i type="int" name="ICHARG">     2</i>
    <i type="int" name="INIWAV">     1</i>
   </separator>
   <separator name="electronic spin" >
    <i type="int" name="ISPIN">     2</i>
    <i type="logical" name="LNONCOLLINEAR"> F  </i>
    <v name="MAGMOM">      0.00000000      0.00000000      0.00000000      0.00000000      0.00000000      0.00000000      0.00000000      0.00000000      0.00000000      0.00000000      0.00000000      0.00000000      0.00000000      0.00000000      0.00000000      0.00000000      0.00000000      0.00000000      0.00000000      0.00000000
      0.00000000      0.00000000      0.00000000      0.00000000      0.00000000      0.00000000      0.00000000      0.00000000      0.00000000      0.00000000      0.00000000      0.00000000      0.00000000      0.00000000      0.00000000      0.00000000      0.00000000      0.00000000      0.00000000      0.00000000
      0.00000000      0.00000000      0.00000000      0.00000000      0.00000000      0.00000000      0.00000000      0.00000000      0.00000000      0.00000000      0.00000000      0.00000000      0.00000000      0.00000000      0.00000000</v>
    <i name="NUPDOWN">      0.00000000</i>
    <i type="logical" name="LSORBIT"> F  </i>
    <v name="SAXIS">      0.00000000      0.00000000      1.00000000</v>
    <i type="logical" name="LSPIRAL"> F  </i>
    <v name="QSPIRAL">      0.00000000      0.00000000      0.00000000</v>
    <i type="logical" name="LZEROZ"> F  </i>
   </separator>
   <separator name="electronic exchange-correlation" >
    <i type="logical" name="LASPH"> F  </i>
    <i type="logical" name="LMETAGGA"> F  </i>
   </separator>
   <separator name="electronic convergence" >
    <i type="int" name="NELM">    60</i>
    <i type="int" name="NELMDL">    -5</i>
    <i type="int" name="NELMIN">     2</i>
    <i name="ENINI">    700.00000000</i>
    <separator name="electronic convergence detail" >
     <i type="logical" name="LDIAG"> T  </i>
     <i type="logical" name="LSUBROT"> F  </i>
     <i name="WEIMIN">      0.00000000</i>
     <i name="EBREAK">      0.00000002</i>
     <i name="DEPER">      0.30000000</i>
     <i type="int" name="NRMM">     4</i>
     <i name="TIME">      0.05000000</i>
    </separator>
   </separator>
   <separator name="electronic mixer" >
    <i name="AMIX">      0.40000000</i>
    <i name="BMIX">      2.00000000</i>
    <i name="AMIN">      0.10000000</i>
    <i name="AMIX_MAG">      1.60000000</i>
    <i name="BMIX_MAG">      2.00000000</i>
    <separator name="electronic mixer details" >
     <i type="int" name="IMIX">     4</i>
     <i type="int" name="MAXMIX">   -45</i>
     <i name="WC">    100.00000000</i>
     <i type="int" name="INIMIX">     1</i>
     <i type="int" name="MIXPRE">     1</i>
     <i type="int" name="MREMOVE">     5</i>
    </separator>
   </separator>
   <separator name="electronic dipolcorrection" >
    <i type="logical" name="LDIPOL"> F  </i>
    <i type="logical" name="LMONO"> F  </i>
    <i type="int" name="IDIPOL">     0</i>
    <i name="EPSILON">      1.00000000</i>
    <v name="DIPOL">   -100.00000000   -100.00000000   -100.00000000</v>
    <i name="EFIELD">      0.00000000</i>
   </separator>
  </separator>
  <separator name="grids" >
   <i type="int" name="NGX">   180</i>
   <i type="int" name="NGY">   180</i>
   <i type="int" name="NGZ">   180</i>
   <i type="int" name="NGXF">   360</i>
   <i type="int" name="NGYF">   360</i>
   <i type="int" name="NGZF">   360</i>
   <i type="logical" name="ADDGRID"> T  </i>
  </separator>
  <separator name="ionic" >
   <i type="int" name="NSW">     0</i>
   <i type="int" name="IBRION">    -1</i>
   <i type="int" name="ISIF">     2</i>
   <i name="PSTRESS">      0.00000000</i>
   <i name="EDIFFG">     -0.01000000</i>
   <i type="int" name="NFREE">     0</i>
   <i name="POTIM">      0.50000000</i>
   <i name="SMASS">     -3.00000000</i>
   <i name="SCALEE">      1.00000000</i>
  </separator>
  <separator name="ionic md" >
   <i name="TEBEG">      0.00010000</i>
   <i name="TEEND">      0.00010000</i>
   <i type="int" name="NBLOCK">     1</i>
   <i type="int" name="KBLOCK">     1</i>
   <i type="int" name="NPACO">   256</i>
   <i name="APACO">     16.00000000</i>
  </separator>
  <separator name="symmetry" >
   <i type="int" name="ISYM">     2</i>
   <i name="SYMPREC">      0.00001000</i>
  </separator>
  <separator name="dos" >
   <i type="logical" name="LORBIT"> F  </i>
   <v name="RWIGS">     -1.00000000     -1.00000000     -1.00000000     -1.00000000     -1.00000000     -1.00000000</v>
   <i type="int" name="NEDOS">   301</i>
   <i name="EMIN">     10.00000000</i>
   <i name="EMAX">    -10.00000000</i>
   <i name="EFERMI">      0.00000000</i>
  </separator>
  <separator name="writing" >
   <i type="int" name="NWRITE">     2</i>
   <i type="logical" name="LWAVE"> T  </i>
   <i type="logical" name="LCHARG"> T  </i>
   <i type="logical" name="LPARD"> F  </i>
   <i type="logical" name="LVTOT"> F  </i>
   <i type="logical" name="LVHAR"> F  </i>
   <i type="logical" name="LELF"> F  </i>
   <i type="logical" name="LOPTICS"> F  </i>
   <v name="STM">      0.00000000      0.00000000      0.00000000      0.00000000      0.00000000      0.00000000      0.00000000</v>
  </separator>
  <separator name="performance" >
   <i type="int" name="NPAR">    64</i>
   <i type="int" name="NSIM">     4</i>
   <i type="int" name="NBLK">    -1</i>
   <i type="logical" name="LPLANE"> T  </i>
   <i type="logical" name="LSCALAPACK"> T  </i>
   <i type="logical" name="LSCAAWARE"> F  </i>
   <i type="logical" name="LSCALU"> F  </i>
   <i type="logical" name="LASYNC"> F  </i>
   <i type="logical" name="LORBITALREAL"> F  </i>
  </separator>
  <separator name="miscellaneous" >
   <i type="int" name="IDIOT">     3</i>
   <i type="logical" name="LMUSIC"> F  </i>
   <v name="POMASS">     12.01100000     12.01100000      1.00000000     14.00100000     16.00000000    101.07000000</v>
   <v name="DARWINR">      0.00000000      0.00000000      0.00000000      0.00000000      0.00000000      0.00000000</v>
   <v name="DARWINV">      1.00000000      1.00000000      1.00000000      1.00000000      1.00000000      1.00000000</v>
   <i type="logical" name="LCORR"> T  </i>
  </separator>
  <i type="logical" name="GGA_COMPAT"> T  </i>
  <i type="logical" name="LBERRY"> F  </i>
  <i type="int" name="ICORELEVEL">     2</i>
  <i type="int" name="CLNT">     1</i>
  <i type="int" name="CLN">     1</i>
  <i type="int" name="CLL">     0</i>
  <i name="CLZ">      0.50000000</i>
  <i type="logical" name="LDAU"> F  </i>
  <i type="int" name="I_CONSTRAINED_M">     0</i>
  <separator name="electronic exchange-correlation" >
   <i type="string" name="GGA">--</i>
   <i type="int" name="VOSKOWN">     0</i>
   <i type="logical" name="LHFCALC"> F  </i>
   <i type="string" name="PRECFOCK"></i>
   <i type="logical" name="LSYMGRAD"> F  </i>
   <i type="logical" name="LHFONE"> F  </i>
   <i type="logical" name="LRHFCALC"> F  </i>
   <i type="logical" name="LTHOMAS"> F  </i>
   <i type="logical" name="LMODELHF"> F  </i>
   <i name="ENCUT4O">     -1.00000000</i>
   <i type="int" name="EXXOEP">     0</i>
   <i type="int" name="FOURORBIT">     0</i>
   <i name="AEXX">      0.00000000</i>
   <i name="HFALPHA">      0.00000000</i>
   <i name="MCALPHA">      0.00000000</i>
   <i name="ALDAX">      1.00000000</i>
   <i name="AGGAX">      1.00000000</i>
   <i name="ALDAC">      1.00000000</i>
   <i name="AGGAC">      1.00000000</i>
   <i type="int" name="NKREDX">     1</i>
   <i type="int" name="NKREDY">     1</i>
   <i type="int" name="NKREDZ">     1</i>
   <i type="logical" name="SHIFTRED"> F  </i>
   <i type="logical" name="ODDONLY"> F  </i>
   <i type="logical" name="EVENONLY"> F  </i>
   <i type="int" name="LMAXFOCK">     0</i>
   <i type="int" name="NMAXFOCKAE">     0</i>
   <i type="logical" name="LFOCKAEDFT"> F  </i>
   <i name="HFSCREEN">      0.00000000</i>
   <i name="HFSCREENC">      0.00000000</i>
   <i type="int" name="NBANDSGWLOW">     0</i>
  </separator>
  <separator name="vdW DFT" >
   <i type="logical" name="LUSE_VDW"> F  </i>
   <i name="Zab_VDW">     -0.84910000</i>
   <i name="PARAM1">      0.12340000</i>
   <i name="PARAM2">      1.00000000</i>
   <i name="PARAM3">      0.00000000</i>
  </separator>
  <separator name="model GW" >
   <i type="int" name="MODEL_GW">     0</i>
   <i name="MODEL_EPS0">     87.27272727</i>
   <i name="MODEL_ALPHA">      1.00000000</i>
  </separator>
  <separator name="linear response parameters" >
   <i type="logical" name="LEPSILON"> F  </i>
   <i type="logical" name="LRPA"> F  </i>
   <i type="logical" name="LNABLA"> F  </i>
   <i type="logical" name="LVEL"> F  </i>
   <i type="int" name="KINTER">     0</i>
   <i name="CSHIFT">      0.10000000</i>
   <i name="OMEGAMAX">     -1.00000000</i>
   <i name="DEG_THRESHOLD">      0.00200000</i>
  </separator>
  <separator name="orbital magnetization" >
   <i type="logical" name="NUCIND"> F  </i>
   <v name="MAGPOS">      0.00000000      0.00000000      0.00000000</v>
   <i type="logical" name="LNICSALL"> T  </i>
   <i type="logical" name="ORBITALMAG"> F  </i>
   <i type="logical" name="LMAGBLOCH"> F  </i>
   <i type="logical" name="LCHIMAG"> F  </i>
   <i type="logical" name="LGAUGE"> T  </i>
   <i type="int" name="MAGATOM">     0</i>
   <v name="MAGDIPOL">      0.00000000      0.00000000      0.00000000</v>
   <v name="AVECCONST">      0.00000000      0.00000000      0.00000000</v>
  </separator>
  <separator name="response functions" >
   <i type="logical" name="LADDER"> F  </i>
   <i type="logical" name="LFXC"> F  </i>
   <i type="logical" name="LHARTREE"> T  </i>
   <i type="int" name="IBSE">     0</i>
   <i type="logical" name="LTCTE"> F  </i>
   <i type="logical" name="LTETE"> F  </i>
   <i type="logical" name="LTRIPLET"> F  </i>
   <i type="logical" name="LFXCEPS"> F  </i>
   <i type="logical" name="LFXHEG"> F  </i>
   <i type="logical" name="L2ORDER"> F  </i>
   <i type="logical" name="LUSEW"> F  </i>
   <i name="ENCUTGW">     -2.00000000</i>
   <i name="ENCUTGWSOFT">     -2.00000000</i>
   <i name="ENCUTLF">     -1.00000000</i>
   <i type="int" name="LMAXMP2">    -1</i>
   <i name="SCISSOR">      0.00000000</i>
   <i type="int" name="NOMEGA">     0</i>
   <i type="int" name="NOMEGAR">     0</i>
   <i type="int" name="NBANDSGW">    -1</i>
   <i type="int" name="NBANDSO">    -1</i>
   <i type="int" name="NBANDSV">    -1</i>
   <i type="int" name="NELM">     1</i>
   <i type="int" name="DIM">     3</i>
   <i type="int" name="ANTIRES">     0</i>
   <i name="OMEGAMAX">    -30.00000000</i>
   <i name="OMEGAMIN">    -30.00000000</i>
   <i name="OMEGATL">   -200.00000000</i>
   <i type="int" name="OMEGAGRID">     0</i>
   <i name="CSHIFT">     -0.10000000</i>
   <i type="logical" name="SELFENERGY"> F  </i>
   <i type="logical" name="LSPECTRAL"> F  </i>
   <i type="logical" name="ODDONLYGW"> F  </i>
   <i type="logical" name="EVENONLYGW"> F  </i>
   <i type="int" name="NKREDLFX">     1</i>
   <i type="int" name="NKREDLFY">     1</i>
   <i type="int" name="NKREDLFZ">     1</i>
   <i type="int" name="MAXMEM">  1800</i>
   <i type="int" name="TELESCOPE">     0</i>
   <i type="int" name="TAUPAR">     1</i>
  </separator>
  <separator name="External order field" >
   <i name="OFIELD_KAPPA">      0.00000000</i>
   <v name="OFIELD_K">      0.00000000      0.00000000      0.00000000</v>
   <i name="OFIELD_Q6_NEAR">      0.00000000</i>
   <i name="OFIELD_Q6_FAR">      0.00000000</i>
   <i name="OFIELD_A">      0.00000000</i>
  </separator>
 </parameters>
 <atominfo>
  <atoms>      55 </atoms>
  <types>       6 </types>
  <array name="atoms" >
   <dimension dim="1">ion</dimension>
   <field type="string">element</field>
   <field type="int">atomtype</field>
   <set>
    <rc><c>C </c><c>   1</c></rc>
    <rc><c>C </c><c>   2</c></rc>
    <rc><c>C </c><c>   2</c></rc>
    <rc><c>C </c><c>   2</c></rc>
    <rc><c>C </c><c>   2</c></rc>
    <rc><c>C </c><c>   2</c></rc>
    <rc><c>C </c><c>   2</c></rc>
    <rc><c>C </c><c>   2</c></rc>
    <rc><c>C </c><c>   2</c></rc>
    <rc><c>C </c><c>   2</c></rc>
    <rc><c>C </c><c>   2</c></rc>
    <rc><c>C </c><c>   2</c></rc>
    <rc><c>C </c><c>   2</c></rc>
    <rc><c>C </c><c>   2</c></rc>
    <rc><c>C </c><c>   2</c></rc>
    <rc><c>C </c><c>   2</c></rc>
    <rc><c>C </c><c>   2</c></rc>
    <rc><c>C </c><c>   2</c></rc>
    <rc><c>C </c><c>   2</c></rc>
    <rc><c>C </c><c>   2</c></rc>
    <rc><c>C </c><c>   2</c></rc>
    <rc><c>C </c><c>   2</c></rc>
    <rc><c>C </c><c>   2</c></rc>
    <rc><c>C </c><c>   2</c></rc>
    <rc><c>C </c><c>   2</c></rc>
    <rc><c>H </c><c>   3</c></rc>
    <rc><c>H </c><c>   3</c></rc>
    <rc><c>H </c><c>   3</c></rc>
    <rc><c>H </c><c>   3</c></rc>
    <rc><c>H </c><c>   3</c></rc>
    <rc><c>H </c><c>   3</c></rc>
    <rc><c>H </c><c>   3</c></rc>
    <rc><c>H </c><c>   3</c></rc>
    <rc><c>H </c><c>   3</c></rc>
    <rc><c>H </c><c>   3</c></rc>
    <rc><c>H </c><c>   3</c></rc>
    <rc><c>H </c><c>   3</c></rc>
    <rc><c>H </c><c>   3</c></rc>
    <rc><c>H </c><c>   3</c></rc>
    <rc><c>H </c><c>   3</c></rc>
    <rc><c>H </c><c>   3</c></rc>
    <rc><c>H </c><c>   3</c></rc>
    <rc><c>H </c><c>   3</c></rc>
    <rc><c>H </c><c>   3</c></rc>
    <rc><c>H </c><c>   3</c></rc>
    <rc><c>H </c><c>   3</c></rc>
    <rc><c>H </c><c>   3</c></rc>
    <rc><c>H </c><c>   3</c></rc>
    <rc><c>N </c><c>   4</c></rc>
    <rc><c>N </c><c>   4</c></rc>
    <rc><c>N </c><c>   4</c></rc>
    <rc><c>N </c><c>   4</c></rc>
    <rc><c>N </c><c>   4</c></rc>
    <rc><c>O </c><c>   5</c></rc>
    <rc><c>Ru</c><c>   6</c></rc>
   </set>
  </array>
  <array name="atomtypes" >
   <dimension dim="1">type</dimension>
   <field type="int">atomspertype</field>
   <field type="string">element</field>
   <field>mass</field>
   <field>valence</field>
   <field type="string">pseudopotential</field>
   <set>
    <rc><c>   1</c><c>C </c><c>     12.01100000</c><c>      4.50000000</c><c>  PAW_PBE C_h 06Feb2004                 </c></rc>
    <rc><c>  24</c><c>C </c><c>     12.01100000</c><c>      4.00000000</c><c>  PAW_PBE C_h 06Feb2004                 </c></rc>
    <rc><c>  23</c><c>H </c><c>      1.00000000</c><c>      1.00000000</c><c>  PAW_PBE H 15Jun2001                   </c></rc>
    <rc><c>   5</c><c>N </c><c>     14.00100000</c><c>      5.00000000</c><c>  PAW_PBE N_h 06Feb2004                 </c></rc>
    <rc><c>   1</c><c>O </c><c>     16.00000000</c><c>      6.00000000</c><c>  PAW_PBE O_h 06Feb2004                 </c></rc>
    <rc><c>   1</c><c>Ru</c><c>    101.07000000</c><c>     14.00000000</c><c>  PAW_PBE Ru_pv 28Jan2005               </c></rc>
   </set>
  </array>
 </atominfo>
 <structure name="initialpos" >
  <crystal>
   <varray name="basis" >
    <v>      20.00000000       0.00000000       0.00000000 </v>
    <v>       0.00000000      20.00000000       0.00000000 </v>
    <v>       0.00000000       0.00000000      20.00000000 </v>
   </varray>
   <i name="volume">   8000.00000000 </i>
   <varray name="rec_basis" >
    <v>       0.05000000       0.00000000       0.00000000 </v>
    <v>       0.00000000       0.05000000       0.00000000 </v>
    <v>       0.00000000       0.00000000       0.05000000 </v>
   </varray>
  </crystal>
  <varray name="positions" >
   <v>       0.59134754       0.33224398       0.68903016 </v>
   <v>       0.43793752       0.56561110       0.32757008 </v>
   <v>       0.45581208       0.52423376       0.38051465 </v>
   <v>       0.47372925       0.61530131       0.44986522 </v>
   <v>       0.45595175       0.65963312       0.39935201 </v>
   <v>       0.43785737       0.63472201       0.33675972 </v>
   <v>       0.52307882       0.32955005       0.67474498 </v>
   <v>       0.49710163       0.37190466       0.62618823 </v>
   <v>       0.60227374       0.41933300       0.60593616 </v>
   <v>       0.63096398       0.37761922       0.65422416 </v>
   <v>       0.73964927       0.52855915       0.53463181 </v>
   <v>       0.70082162       0.56612858       0.49044049 </v>
   <v>       0.63257913       0.55363620       0.48652424 </v>
   <v>       0.63952130       0.46927713       0.56732841 </v>
   <v>       0.70843899       0.47974495       0.57314689 </v>
   <v>       0.29334713       0.47671938       0.56830116 </v>
   <v>       0.36211554       0.48866484       0.56417415 </v>
   <v>       0.40790931       0.62211625       0.69058213 </v>
   <v>       0.47619960       0.62606623       0.67660612 </v>
   <v>       0.50295190       0.58590820       0.62668073 </v>
   <v>       0.39825425       0.53800137       0.60426081 </v>
   <v>       0.36904589       0.57756069       0.65398228 </v>
   <v>       0.37289802       0.40579857       0.48223443 </v>
   <v>       0.30486503       0.39173492       0.48443166 </v>
   <v>       0.26422003       0.42785518       0.52821594 </v>
   <v>       0.48989745       0.29510618       0.70074864 </v>
   <v>       0.61334240       0.29968355       0.72673159 </v>
   <v>       0.68424189       0.38076917       0.66478776 </v>
   <v>       0.54225374       0.36233861       0.46129841 </v>
   <v>       0.31579090       0.57306911       0.66420366 </v>
   <v>       0.44416348       0.37118871       0.61364770 </v>
   <v>       0.42392665       0.66833230       0.29622671 </v>
   <v>       0.45642762       0.71313270       0.40950260 </v>
   <v>       0.48809132       0.63358802       0.49907234 </v>
   <v>       0.56912778       0.41808713       0.41480476 </v>
   <v>       0.73767440       0.44963919       0.60776512 </v>
   <v>       0.72277620       0.60481012       0.45904817 </v>
   <v>       0.45570253       0.47012894       0.37468790 </v>
   <v>       0.40614333       0.37888556       0.44852541 </v>
   <v>       0.28443799       0.35306162       0.45202062 </v>
   <v>       0.79326502       0.53703787       0.53892527 </v>
   <v>       0.55589708       0.58769132       0.61440612 </v>
   <v>       0.42412006       0.54328620       0.27986105 </v>
   <v>       0.50894741       0.65984570       0.70400156 </v>
   <v>       0.26265982       0.50568523       0.60265428 </v>
   <v>       0.21072272       0.41813760       0.53105039 </v>
   <v>       0.60090654       0.58197914       0.45254259 </v>
   <v>       0.38544357       0.65296704       0.72941133 </v>
   <v>       0.47424490       0.54794204       0.44140236 </v>
   <v>       0.40180479       0.45306079       0.52108436 </v>
   <v>       0.53520702       0.41608490       0.59173240 </v>
   <v>       0.46544808       0.54254992       0.59041194 </v>
   <v>       0.60138410       0.50650621       0.52397638 </v>
   <v>       0.53073984       0.40562607       0.44215451 </v>
   <v>       0.50088568       0.48087016       0.51934246 </v>
  </varray>
  <varray name="selective"  type="logical" >
   <v type="logical" >  T  T  T </v>
   <v type="logical" >  T  T  T </v>
   <v type="logical" >  T  T  T </v>
   <v type="logical" >  T  T  T </v>
   <v type="logical" >  T  T  T </v>
   <v type="logical" >  T  T  T </v>
   <v type="logical" >  T  T  T </v>
   <v type="logical" >  T  T  T </v>
   <v type="logical" >  T  T  T </v>
   <v type="logical" >  T  T  T </v>
   <v type="logical" >  T  T  T </v>
   <v type="logical" >  T  T  T </v>
   <v type="logical" >  T  T  T </v>
   <v type="logical" >  T  T  T </v>
   <v type="logical" >  T  T  T </v>
   <v type="logical" >  T  T  T </v>
   <v type="logical" >  T  T  T </v>
   <v type="logical" >  T  T  T </v>
   <v type="logical" >  T  T  T </v>
   <v type="logical" >  T  T  T </v>
   <v type="logical" >  T  T  T </v>
   <v type="logical" >  T  T  T </v>
   <v type="logical" >  T  T  T </v>
   <v type="logical" >  T  T  T </v>
   <v type="logical" >  T  T  T </v>
   <v type="logical" >  T  T  T </v>
   <v type="logical" >  T  T  T </v>
   <v type="logical" >  T  T  T </v>
   <v type="logical" >  T  T  T </v>
   <v type="logical" >  T  T  T </v>
   <v type="logical" >  T  T  T </v>
   <v type="logical" >  T  T  T </v>
   <v type="logical" >  T  T  T </v>
   <v type="logical" >  T  T  T </v>
   <v type="logical" >  T  T  T </v>
   <v type="logical" >  T  T  T </v>
   <v type="logical" >  T  T  T </v>
   <v type="logical" >  T  T  T </v>
   <v type="logical" >  T  T  T </v>
   <v type="logical" >  T  T  T </v>
   <v type="logical" >  T  T  T </v>
   <v type="logical" >  T  T  T </v>
   <v type="logical" >  T  T  T </v>
   <v type="logical" >  T  T  T </v>
   <v type="logical" >  T  T  T </v>
   <v type="logical" >  T  T  T </v>
   <v type="logical" >  T  T  T </v>
   <v type="logical" >  T  T  T </v>
   <v type="logical" >  T  T  T </v>
   <v type="logical" >  T  T  T </v>
   <v type="logical" >  T  T  T </v>
   <v type="logical" >  T  T  T </v>
   <v type="logical" >  T  T  T </v>
   <v type="logical" >  T  T  T </v>
   <v type="logical" >  T  T  T </v>
  </varray>
  <nose>
   <v>      -3.00000000       0.00000000       0.00010000       0.00010000 </v>
  </nose>
 </structure>
 <calculation>
  <scstep>
   <time name="dav">   14.93   15.89</time>
   <time name="total">   22.52   23.52</time>
   <energy>
    <i name="alphaZ">     12.91687988 </i>
    <i name="ewald">  23262.91430050 </i>
    <i name="hartreedc"> -28865.22054250 </i>
    <i name="XCdc">    400.93209937 </i>
    <i name="pawpsdc">   5890.45591622 </i>
    <i name="pawaedc">  -5710.10246236 </i>
    <i name="eentropy">     -0.00000438 </i>
    <i name="bandstr">  -1675.94506025 </i>
    <i name="atom">   7593.39991119 </i>
    <i name="e_fr_energy">    909.35103768 </i>
    <i name="e_wo_entrp">    909.35104206 </i>
    <i name="e_0_energy">    909.35103987 </i>
   </energy>
  </scstep>
  <scstep>
   <time name="dav">   19.26   20.28</time>
   <time name="total">   19.27   20.29</time>
   <energy>
    <i name="e_fr_energy">    -68.15043929 </i>
    <i name="e_wo_entrp">    -68.15043929 </i>
    <i name="e_0_energy">    -68.15043929 </i>
   </energy>
  </scstep>
  <scstep>
   <time name="dav">   16.03   16.97</time>
   <time name="total">   16.04   16.98</time>
   <energy>
    <i name="e_fr_energy">   -393.35097991 </i>
    <i name="e_wo_entrp">   -393.35097991 </i>
    <i name="e_0_energy">   -393.35097991 </i>
   </energy>
  </scstep>
  <scstep>
   <time name="dav">   12.83   13.52</time>
   <time name="total">   12.83   13.52</time>
   <energy>
    <i name="e_fr_energy">   -412.29151645 </i>
    <i name="e_wo_entrp">   -412.29151645 </i>
    <i name="e_0_energy">   -412.29151645 </i>
   </energy>
  </scstep>
  <scstep>
   <time name="dav">   16.91   17.90</time>
   <time name="total">   22.23   23.23</time>
   <energy>
    <i name="e_fr_energy">   -412.54774310 </i>
    <i name="e_wo_entrp">   -412.54774310 </i>
    <i name="e_0_energy">   -412.54774310 </i>
   </energy>
  </scstep>
  <scstep>
   <time name="dav">   11.96   12.66</time>
   <time name="total">   25.04   25.80</time>
   <energy>
    <i name="e_fr_energy">   -393.07232803 </i>
    <i name="e_wo_entrp">   -393.07232803 </i>
    <i name="e_0_energy">   -393.07232803 </i>
   </energy>
  </scstep>
  <scstep>
   <time name="dav">   13.94   14.83</time>
   <time name="total">   26.62   27.64</time>
   <energy>
    <i name="e_fr_energy">   -382.81292163 </i>
    <i name="e_wo_entrp">   -382.81292163 </i>
    <i name="e_0_energy">   -382.81292163 </i>
   </energy>
  </scstep>
  <scstep>
   <time name="dav">   15.46   16.73</time>
   <time name="total">   28.25   29.55</time>
   <energy>
    <i name="e_fr_energy">   -378.76807605 </i>
    <i name="e_wo_entrp">   -378.76807605 </i>
    <i name="e_0_energy">   -378.76807605 </i>
   </energy>
  </scstep>
  <scstep>
   <time name="dav">   15.01   16.53</time>
   <time name="total">   27.92   29.49</time>
   <energy>
    <i name="e_fr_energy">   -377.65702165 </i>
    <i name="e_wo_entrp">   -377.65702165 </i>
    <i name="e_0_energy">   -377.65702165 </i>
   </energy>
  </scstep>
  <scstep>
   <time name="dav">   15.39   16.63</time>
   <time name="total">   28.22   29.48</time>
   <energy>
    <i name="e_fr_energy">   -377.62237693 </i>
    <i name="e_wo_entrp">   -377.62237693 </i>
    <i name="e_0_energy">   -377.62237693 </i>
   </energy>
  </scstep>
  <scstep>
   <time name="dav">   17.29   18.65</time>
   <time name="total">   30.10   31.50</time>
   <energy>
    <i name="e_fr_energy">   -377.49525938 </i>
    <i name="e_wo_entrp">   -377.49525938 </i>
    <i name="e_0_energy">   -377.49525938 </i>
   </energy>
  </scstep>
  <scstep>
   <time name="dav">   15.36   16.63</time>
   <time name="total">   28.18   29.48</time>
   <energy>
    <i name="e_fr_energy">   -377.41723858 </i>
    <i name="e_wo_entrp">   -377.41723858 </i>
    <i name="e_0_energy">   -377.41723858 </i>
   </energy>
  </scstep>
  <scstep>
   <time name="dav">   15.11   16.49</time>
   <time name="total">   27.99   29.41</time>
   <energy>
    <i name="e_fr_energy">   -377.39211311 </i>
    <i name="e_wo_entrp">   -377.39211311 </i>
    <i name="e_0_energy">   -377.39211311 </i>
   </energy>
  </scstep>
  <scstep>
   <time name="dav">   15.38   16.64</time>
   <time name="total">   28.18   29.46</time>
   <energy>
    <i name="e_fr_energy">   -377.37707192 </i>
    <i name="e_wo_entrp">   -377.37707192 </i>
    <i name="e_0_energy">   -377.37707192 </i>
   </energy>
  </scstep>
  <scstep>
   <time name="dav">   15.26   16.56</time>
   <time name="total">   28.16   29.49</time>
   <energy>
    <i name="e_fr_energy">   -377.37902882 </i>
    <i name="e_wo_entrp">   -377.37902882 </i>
    <i name="e_0_energy">   -377.37902882 </i>
   </energy>
  </scstep>
  <scstep>
   <time name="dav">   15.37   16.64</time>
   <time name="total">   28.33   29.62</time>
   <energy>
    <i name="e_fr_energy">   -377.38864095 </i>
    <i name="e_wo_entrp">   -377.38864095 </i>
    <i name="e_0_energy">   -377.38864095 </i>
   </energy>
  </scstep>
  <scstep>
   <time name="dav">   15.17   16.45</time>
   <time name="total">   28.12   29.42</time>
   <energy>
    <i name="e_fr_energy">   -377.39527423 </i>
    <i name="e_wo_entrp">   -377.39527423 </i>
    <i name="e_0_energy">   -377.39527423 </i>
   </energy>
  </scstep>
  <scstep>
   <time name="dav">   15.37   16.62</time>
   <time name="total">   28.40   29.68</time>
   <energy>
    <i name="e_fr_energy">   -377.39932458 </i>
    <i name="e_wo_entrp">   -377.39932458 </i>
    <i name="e_0_energy">   -377.39932458 </i>
   </energy>
  </scstep>
  <scstep>
   <time name="dav">   15.17   16.47</time>
   <time name="total">   28.01   29.35</time>
   <energy>
    <i name="e_fr_energy">   -377.40388076 </i>
    <i name="e_wo_entrp">   -377.40388076 </i>
    <i name="e_0_energy">   -377.40388076 </i>
   </energy>
  </scstep>
  <scstep>
   <time name="dav">   15.34   16.68</time>
   <time name="total">   28.19   29.57</time>
   <energy>
    <i name="e_fr_energy">   -377.40612756 </i>
    <i name="e_wo_entrp">   -377.40612756 </i>
    <i name="e_0_energy">   -377.40612756 </i>
   </energy>
  </scstep>
  <scstep>
   <time name="dav">   15.10   16.39</time>
   <time name="total">   28.08   29.41</time>
   <energy>
    <i name="e_fr_energy">   -377.40786218 </i>
    <i name="e_wo_entrp">   -377.40786218 </i>
    <i name="e_0_energy">   -377.40786218 </i>
   </energy>
  </scstep>
  <scstep>
   <time name="dav">   15.25   16.52</time>
   <time name="total">   28.39   29.69</time>
   <energy>
    <i name="e_fr_energy">   -377.40924769 </i>
    <i name="e_wo_entrp">   -377.40924769 </i>
    <i name="e_0_energy">   -377.40924769 </i>
   </energy>
  </scstep>
  <scstep>
   <time name="dav">   13.16   14.39</time>
   <time name="total">   26.16   27.45</time>
   <energy>
    <i name="e_fr_energy">   -377.40976577 </i>
    <i name="e_wo_entrp">   -377.40976577 </i>
    <i name="e_0_energy">   -377.40976577 </i>
   </energy>
  </scstep>
  <scstep>
   <time name="dav">   13.28   14.49</time>
   <time name="total">   26.38   27.64</time>
   <energy>
    <i name="e_fr_energy">   -377.41017755 </i>
    <i name="e_wo_entrp">   -377.41017755 </i>
    <i name="e_0_energy">   -377.41017755 </i>
   </energy>
  </scstep>
  <scstep>
   <time name="dav">   13.14   14.42</time>
   <time name="total">   26.05   27.35</time>
   <energy>
    <i name="e_fr_energy">   -377.41041167 </i>
    <i name="e_wo_entrp">   -377.41041167 </i>
    <i name="e_0_energy">   -377.41041167 </i>
   </energy>
  </scstep>
  <scstep>
   <time name="dav">   13.15   14.32</time>
   <time name="total">   26.13   27.33</time>
   <energy>
    <i name="e_fr_energy">   -377.41051735 </i>
    <i name="e_wo_entrp">   -377.41051735 </i>
    <i name="e_0_energy">   -377.41051735 </i>
   </energy>
  </scstep>
  <scstep>
   <time name="dav">   13.14   14.30</time>
   <time name="total">   26.18   27.39</time>
   <energy>
    <i name="e_fr_energy">   -377.41061720 </i>
    <i name="e_wo_entrp">   -377.41061720 </i>
    <i name="e_0_energy">   -377.41061720 </i>
   </energy>
  </scstep>
  <scstep>
   <time name="dav">   13.13   14.30</time>
   <time name="total">   26.24   27.45</time>
   <energy>
    <i name="e_fr_energy">   -377.41064824 </i>
    <i name="e_wo_entrp">   -377.41064824 </i>
    <i name="e_0_energy">   -377.41064824 </i>
   </energy>
  </scstep>
  <scstep>
   <time name="dav">   13.30   14.48</time>
   <time name="total">   26.26   27.46</time>
   <energy>
    <i name="e_fr_energy">   -377.41067768 </i>
    <i name="e_wo_entrp">   -377.41067768 </i>
    <i name="e_0_energy">   -377.41067768 </i>
   </energy>
  </scstep>
  <scstep>
   <time name="dav">   13.12   14.30</time>
   <time name="total">   20.79   22.00</time>
   <energy>
    <i name="alphaZ">     12.91687988 </i>
    <i name="ewald">  23262.91430050 </i>
    <i name="hartreedc"> -29107.10799716 </i>
    <i name="XCdc">    424.25499269 </i>
    <i name="pawpsdc">  81193.01080662 </i>
    <i name="pawaedc"> -81019.86700744 </i>
    <i name="eentropy">     -0.00000000 </i>
    <i name="bandstr">  -2736.93257385 </i>
    <i name="atom">   7593.39991119 </i>
    <i name="e_fr_energy">   -377.41068757 </i>
    <i name="e_wo_entrp">   -377.41068757 </i>
    <i name="e_0_energy">   -377.41068757 </i>
   </energy>
  </scstep>
  <structure>
   <crystal>
    <varray name="basis" >
     <v>      20.00000000       0.00000000       0.00000000 </v>
     <v>       0.00000000      20.00000000       0.00000000 </v>
     <v>       0.00000000       0.00000000      20.00000000 </v>
    </varray>
    <i name="volume">   8000.00000000 </i>
    <varray name="rec_basis" >
     <v>       0.05000000       0.00000000       0.00000000 </v>
     <v>       0.00000000       0.05000000       0.00000000 </v>
     <v>       0.00000000       0.00000000       0.05000000 </v>
    </varray>
   </crystal>
   <varray name="positions" >
    <v>       0.59134754       0.33224398       0.68903016 </v>
    <v>       0.43793752       0.56561110       0.32757008 </v>
    <v>       0.45581208       0.52423376       0.38051465 </v>
    <v>       0.47372925       0.61530131       0.44986522 </v>
    <v>       0.45595175       0.65963312       0.39935201 </v>
    <v>       0.43785737       0.63472201       0.33675972 </v>
    <v>       0.52307882       0.32955005       0.67474498 </v>
    <v>       0.49710163       0.37190466       0.62618823 </v>
    <v>       0.60227374       0.41933300       0.60593616 </v>
    <v>       0.63096398       0.37761922       0.65422416 </v>
    <v>       0.73964927       0.52855915       0.53463181 </v>
    <v>       0.70082162       0.56612858       0.49044049 </v>
    <v>       0.63257913       0.55363620       0.48652424 </v>
    <v>       0.63952130       0.46927713       0.56732841 </v>
    <v>       0.70843899       0.47974495       0.57314689 </v>
    <v>       0.29334713       0.47671938       0.56830116 </v>
    <v>       0.36211554       0.48866484       0.56417415 </v>
    <v>       0.40790931       0.62211625       0.69058213 </v>
    <v>       0.47619960       0.62606623       0.67660612 </v>
    <v>       0.50295190       0.58590820       0.62668073 </v>
    <v>       0.39825425       0.53800137       0.60426081 </v>
    <v>       0.36904589       0.57756069       0.65398228 </v>
    <v>       0.37289802       0.40579857       0.48223443 </v>
    <v>       0.30486503       0.39173492       0.48443166 </v>
    <v>       0.26422003       0.42785518       0.52821594 </v>
    <v>       0.48989745       0.29510618       0.70074864 </v>
    <v>       0.61334240       0.29968355       0.72673159 </v>
    <v>       0.68424189       0.38076917       0.66478776 </v>
    <v>       0.54225374       0.36233861       0.46129841 </v>
    <v>       0.31579090       0.57306911       0.66420366 </v>
    <v>       0.44416348       0.37118871       0.61364770 </v>
    <v>       0.42392665       0.66833230       0.29622671 </v>
    <v>       0.45642762       0.71313270       0.40950260 </v>
    <v>       0.48809132       0.63358802       0.49907234 </v>
    <v>       0.56912778       0.41808713       0.41480476 </v>
    <v>       0.73767440       0.44963919       0.60776512 </v>
    <v>       0.72277620       0.60481012       0.45904817 </v>
    <v>       0.45570253       0.47012894       0.37468790 </v>
    <v>       0.40614333       0.37888556       0.44852541 </v>
    <v>       0.28443799       0.35306162       0.45202062 </v>
    <v>       0.79326502       0.53703787       0.53892527 </v>
    <v>       0.55589708       0.58769132       0.61440612 </v>
    <v>       0.42412006       0.54328620       0.27986105 </v>
    <v>       0.50894741       0.65984570       0.70400156 </v>
    <v>       0.26265982       0.50568523       0.60265428 </v>
    <v>       0.21072272       0.41813760       0.53105039 </v>
    <v>       0.60090654       0.58197914       0.45254259 </v>
    <v>       0.38544357       0.65296704       0.72941133 </v>
    <v>       0.47424490       0.54794204       0.44140236 </v>
    <v>       0.40180479       0.45306079       0.52108436 </v>
    <v>       0.53520702       0.41608490       0.59173240 </v>
    <v>       0.46544808       0.54254992       0.59041194 </v>
    <v>       0.60138410       0.50650621       0.52397638 </v>
    <v>       0.53073984       0.40562607       0.44215451 </v>
    <v>       0.50088568       0.48087016       0.51934246 </v>
   </varray>
  </structure>
  <varray name="forces" >
   <v>       0.00551910       0.17354475      -0.17057818 </v>
   <v>       0.00238085      -0.00603055       0.00562506 </v>
   <v>       0.00000750      -0.06138959       0.00963988 </v>
   <v>       0.01605690       0.01460174       0.04431692 </v>
   <v>       0.00460028      -0.00081206       0.00886965 </v>
   <v>       0.00198614      -0.00439689       0.00728531 </v>
   <v>       0.81737888       0.08882024       0.12264809 </v>
   <v>       0.06497697      -0.07820177       0.13000181 </v>
   <v>       0.11773474       0.04126954      -0.02563690 </v>
   <v>      -0.60908925      -0.65304843       0.49955909 </v>
   <v>       0.03221526       0.01902625      -0.01109159 </v>
   <v>       0.04466657      -0.02679938       0.03847901 </v>
   <v>      -0.07597206      -0.03270093       0.01760318 </v>
   <v>       0.10178498       0.01797216       0.01004441 </v>
   <v>      -0.02335807      -0.03714129       0.03476553 </v>
   <v>       0.00614667       0.01308448       0.01322807 </v>
   <v>      -0.00055931      -0.00869947      -0.02444565 </v>
   <v>       0.02046489      -0.01042011      -0.02041112 </v>
   <v>       0.00656335       0.01052820       0.01641238 </v>
   <v>       0.00631322      -0.02170999      -0.03560787 </v>
   <v>       0.02187692      -0.00927761      -0.02840549 </v>
   <v>      -0.01214802      -0.00309966      -0.00247170 </v>
   <v>       0.04805717       0.00087804      -0.00091617 </v>
   <v>      -0.02343468      -0.00273609       0.00729702 </v>
   <v>       0.01737636      -0.01069296      -0.01428936 </v>
   <v>       0.15952715      -0.04905040       0.08421705 </v>
   <v>      -0.47476800       0.69613594      -0.80596226 </v>
   <v>      -0.05434314      -0.12133279       0.11216775 </v>
   <v>      -0.01452338      -0.00908063      -0.06669680 </v>
   <v>      -0.00088136       0.00684297      -0.00234474 </v>
   <v>       0.01345510      -0.06198271       0.06045901 </v>
   <v>      -0.00348815       0.00501768      -0.00101558 </v>
   <v>       0.00434691      -0.00131753       0.00354148 </v>
   <v>      -0.00104123       0.01662271      -0.00585008 </v>
   <v>       0.00147332      -0.00615244      -0.04855508 </v>
   <v>       0.05140881       0.01374602      -0.00215454 </v>
   <v>       0.00920708       0.00280506      -0.00509949 </v>
   <v>      -0.01352113      -0.00144193      -0.01651498 </v>
   <v>      -0.00520317      -0.00559069      -0.01348361 </v>
   <v>      -0.00024602      -0.00485838      -0.00375103 </v>
   <v>       0.00067512      -0.00048865       0.00319631 </v>
   <v>       0.00649204       0.01674302       0.00152154 </v>
   <v>      -0.00397280      -0.00363447       0.00666553 </v>
   <v>       0.00178682       0.00467018      -0.00183795 </v>
   <v>      -0.00414050      -0.00077499      -0.00338423 </v>
   <v>      -0.00544982      -0.00018568      -0.00292402 </v>
   <v>      -0.00285560      -0.00529675       0.00102143 </v>
   <v>      -0.00361730       0.00868216       0.00619545 </v>
   <v>      -0.02061114       0.04102758      -0.00076142 </v>
   <v>      -0.11250124      -0.03903394       0.01032539 </v>
   <v>      -0.23321868       0.25102108      -0.26610161 </v>
   <v>      -0.11303994       0.15030515       0.15123277 </v>
   <v>      -0.00746308      -0.02040503       0.00338701 </v>
   <v>       0.00940992       0.04544089       0.04449116 </v>
   <v>       0.22555805      -0.34100209       0.12609411 </v>
  </varray>
  <varray name="stress" >
   <v>      -2.94630796       0.00710361      -0.11118759 </v>
   <v>       0.00710362      -2.93165228       0.39255964 </v>
   <v>      -0.11118760       0.39255963      -2.97635416 </v>
  </varray>
  <energy>
   <i name="e_fr_energy">   -377.41068757 </i>
   <i name="e_wo_entrp">   -377.41068757 </i>
   <i name="e_0_energy">     -0.00000000 </i>
  </energy>
  <time name="totalsc"> 1016.23 1054.16</time>
  <eigenvalues>
   <array>
    <dimension dim="1">band</dimension>
    <dimension dim="2">kpoint</dimension>
    <dimension dim="3">spin</dimension>
    <field>eigene</field>
    <field>occ</field>
    <set>
     <set comment="spin 1">
      <set comment="kpoint 1">
       <r>  -49.1205    1.0000 </r>
       <r>  -49.0428    1.0000 </r>
       <r>  -48.7359    1.0000 </r>
       <r>  -29.1900    1.0000 </r>
       <r>  -27.4146    1.0000 </r>
       <r>  -26.8562    1.0000 </r>
       <r>  -26.5182    1.0000 </r>
       <r>  -26.1402    1.0000 </r>
       <r>  -26.1055    1.0000 </r>
       <r>  -24.2056    1.0000 </r>
       <r>  -22.9067    1.0000 </r>
       <r>  -22.5317    1.0000 </r>
       <r>  -22.4127    1.0000 </r>
       <r>  -22.3005    1.0000 </r>
       <r>  -22.1734    1.0000 </r>
       <r>  -21.9698    1.0000 </r>
       <r>  -21.3787    1.0000 </r>
       <r>  -21.0414    1.0000 </r>
       <r>  -20.7737    1.0000 </r>
       <r>  -19.4811    1.0000 </r>
       <r>  -19.4391    1.0000 </r>
       <r>  -18.7127    1.0000 </r>
       <r>  -18.4286    1.0000 </r>
       <r>  -18.1333    1.0000 </r>
       <r>  -17.9757    1.0000 </r>
       <r>  -17.7802    1.0000 </r>
       <r>  -17.5876    1.0000 </r>
       <r>  -17.5567    1.0000 </r>
       <r>  -17.2855    1.0000 </r>
       <r>  -16.8647    1.0000 </r>
       <r>  -16.5715    1.0000 </r>
       <r>  -15.8788    1.0000 </r>
       <r>  -15.7467    1.0000 </r>
       <r>  -15.3208    1.0000 </r>
       <r>  -15.2094    1.0000 </r>
       <r>  -14.7504    1.0000 </r>
       <r>  -14.7172    1.0000 </r>
       <r>  -14.6790    1.0000 </r>
       <r>  -14.3017    1.0000 </r>
       <r>  -14.0556    1.0000 </r>
       <r>  -14.0475    1.0000 </r>
       <r>  -13.9894    1.0000 </r>
       <r>  -13.9574    1.0000 </r>
       <r>  -13.8653    1.0000 </r>
       <r>  -13.7653    1.0000 </r>
       <r>  -13.7170    1.0000 </r>
       <r>  -13.3686    1.0000 </r>
       <r>  -13.3501    1.0000 </r>
       <r>  -13.1994    1.0000 </r>
       <r>  -13.1477    1.0000 </r>
       <r>  -12.9235    1.0000 </r>
       <r>  -12.8512    1.0000 </r>
       <r>  -12.6641    1.0000 </r>
       <r>  -12.6537    1.0000 </r>
       <r>  -12.5557    1.0000 </r>
       <r>  -12.4180    1.0000 </r>
       <r>  -12.2922    1.0000 </r>
       <r>  -12.2535    1.0000 </r>
       <r>  -12.1757    1.0000 </r>
       <r>  -12.0331    1.0000 </r>
       <r>  -11.5618    1.0000 </r>
       <r>  -11.4252    1.0000 </r>
       <r>  -11.2773    1.0000 </r>
       <r>  -11.2023    1.0000 </r>
       <r>  -11.1414    1.0000 </r>
       <r>  -11.0465    1.0000 </r>
       <r>  -10.7615    1.0000 </r>
       <r>  -10.6738    1.0000 </r>
       <r>  -10.4283    1.0000 </r>
       <r>  -10.3252    1.0000 </r>
       <r>   -9.9627    1.0000 </r>
       <r>   -9.9498    1.0000 </r>
       <r>   -9.8973    1.0000 </r>
       <r>   -9.7565    1.0000 </r>
       <r>   -9.7139    1.0000 </r>
       <r>   -9.6812    1.0000 </r>
       <r>   -9.3189    1.0000 </r>
       <r>   -8.8975    1.0000 </r>
       <r>   -8.6568    1.0000 </r>
       <r>   -8.3590    1.0000 </r>
       <r>   -7.4820    1.0000 </r>
       <r>   -7.2584    1.0000 </r>
       <r>   -7.1661    1.0000 </r>
       <r>   -5.7467    0.0000 </r>
       <r>   -5.1218    0.0000 </r>
       <r>   -4.9412    0.0000 </r>
       <r>   -4.3399    0.0000 </r>
       <r>   -4.1262    0.0000 </r>
       <r>   -4.0605    0.0000 </r>
       <r>   -3.9365    0.0000 </r>
       <r>   -3.8830    0.0000 </r>
       <r>   -3.4421    0.0000 </r>
       <r>   -3.3158    0.0000 </r>
       <r>   -3.1540    0.0000 </r>
       <r>   -2.9057    0.0000 </r>
       <r>   -2.6939    0.0000 </r>
       <r>   -1.9266    0.0000 </r>
       <r>   -1.6856    0.0000 </r>
       <r>   -1.6229    0.0000 </r>
       <r>   -1.4511    0.0000 </r>
       <r>   -1.3058    0.0000 </r>
       <r>   -1.1193    0.0000 </r>
       <r>   -1.0604    0.0000 </r>
       <r>   -1.0047    0.0000 </r>
       <r>   -0.9653    0.0000 </r>
       <r>   -0.8008    0.0000 </r>
       <r>   -0.6362    0.0000 </r>
       <r>   -0.6047    0.0000 </r>
       <r>   -0.5100    0.0000 </r>
       <r>   -0.4237    0.0000 </r>
       <r>   -0.3901    0.0000 </r>
       <r>   -0.3272    0.0000 </r>
       <r>   -0.2409    0.0000 </r>
       <r>   -0.1274    0.0000 </r>
       <r>   -0.0413    0.0000 </r>
       <r>    0.0408    0.0000 </r>
       <r>    0.0838    0.0000 </r>
       <r>    0.1480    0.0000 </r>
       <r>    0.2271    0.0000 </r>
       <r>    0.2539    0.0000 </r>
       <r>    0.3094    0.0000 </r>
       <r>    0.4120    0.0000 </r>
       <r>    0.4260    0.0000 </r>
       <r>    0.4874    0.0000 </r>
       <r>    0.5813    0.0000 </r>
       <r>    0.6606    0.0000 </r>
       <r>    0.6877    0.0000 </r>
       <r>    0.7447    0.0000 </r>
      </set>
     </set>
     <set comment="spin 2">
      <set comment="kpoint 1">
       <r>  -49.1205    1.0000 </r>
       <r>  -49.0428    1.0000 </r>
       <r>  -48.7359    1.0000 </r>
       <r>  -29.1900    1.0000 </r>
       <r>  -27.4146    1.0000 </r>
       <r>  -26.8562    1.0000 </r>
       <r>  -26.5182    1.0000 </r>
       <r>  -26.1402    1.0000 </r>
       <r>  -26.1055    1.0000 </r>
       <r>  -24.2056    1.0000 </r>
       <r>  -22.9067    1.0000 </r>
       <r>  -22.5317    1.0000 </r>
       <r>  -22.4127    1.0000 </r>
       <r>  -22.3005    1.0000 </r>
       <r>  -22.1734    1.0000 </r>
       <r>  -21.9698    1.0000 </r>
       <r>  -21.3787    1.0000 </r>
       <r>  -21.0414    1.0000 </r>
       <r>  -20.7737    1.0000 </r>
       <r>  -19.4811    1.0000 </r>
       <r>  -19.4391    1.0000 </r>
       <r>  -18.7127    1.0000 </r>
       <r>  -18.4286    1.0000 </r>
       <r>  -18.1333    1.0000 </r>
       <r>  -17.9757    1.0000 </r>
       <r>  -17.7802    1.0000 </r>
       <r>  -17.5876    1.0000 </r>
       <r>  -17.5567    1.0000 </r>
       <r>  -17.2855    1.0000 </r>
       <r>  -16.8647    1.0000 </r>
       <r>  -16.5715    1.0000 </r>
       <r>  -15.8788    1.0000 </r>
       <r>  -15.7467    1.0000 </r>
       <r>  -15.3208    1.0000 </r>
       <r>  -15.2094    1.0000 </r>
       <r>  -14.7504    1.0000 </r>
       <r>  -14.7172    1.0000 </r>
       <r>  -14.6790    1.0000 </r>
       <r>  -14.3017    1.0000 </r>
       <r>  -14.0556    1.0000 </r>
       <r>  -14.0475    1.0000 </r>
       <r>  -13.9894    1.0000 </r>
       <r>  -13.9574    1.0000 </r>
       <r>  -13.8653    1.0000 </r>
       <r>  -13.7653    1.0000 </r>
       <r>  -13.7170    1.0000 </r>
       <r>  -13.3686    1.0000 </r>
       <r>  -13.3501    1.0000 </r>
       <r>  -13.1994    1.0000 </r>
       <r>  -13.1477    1.0000 </r>
       <r>  -12.9235    1.0000 </r>
       <r>  -12.8512    1.0000 </r>
       <r>  -12.6641    1.0000 </r>
       <r>  -12.6537    1.0000 </r>
       <r>  -12.5557    1.0000 </r>
       <r>  -12.4180    1.0000 </r>
       <r>  -12.2922    1.0000 </r>
       <r>  -12.2535    1.0000 </r>
       <r>  -12.1757    1.0000 </r>
       <r>  -12.0331    1.0000 </r>
       <r>  -11.5618    1.0000 </r>
       <r>  -11.4252    1.0000 </r>
       <r>  -11.2773    1.0000 </r>
       <r>  -11.2023    1.0000 </r>
       <r>  -11.1414    1.0000 </r>
       <r>  -11.0465    1.0000 </r>
       <r>  -10.7615    1.0000 </r>
       <r>  -10.6738    1.0000 </r>
       <r>  -10.4283    1.0000 </r>
       <r>  -10.3252    1.0000 </r>
       <r>   -9.9627    1.0000 </r>
       <r>   -9.9498    1.0000 </r>
       <r>   -9.8973    1.0000 </r>
       <r>   -9.7565    1.0000 </r>
       <r>   -9.7139    1.0000 </r>
       <r>   -9.6812    1.0000 </r>
       <r>   -9.3189    1.0000 </r>
       <r>   -8.8975    1.0000 </r>
       <r>   -8.6568    1.0000 </r>
       <r>   -8.3590    1.0000 </r>
       <r>   -7.4820    1.0000 </r>
       <r>   -7.2584    1.0000 </r>
       <r>   -7.1661    1.0000 </r>
       <r>   -5.7467    0.0000 </r>
       <r>   -5.1218    0.0000 </r>
       <r>   -4.9412    0.0000 </r>
       <r>   -4.3399    0.0000 </r>
       <r>   -4.1262    0.0000 </r>
       <r>   -4.0605    0.0000 </r>
       <r>   -3.9365    0.0000 </r>
       <r>   -3.8830    0.0000 </r>
       <r>   -3.4421    0.0000 </r>
       <r>   -3.3158    0.0000 </r>
       <r>   -3.1540    0.0000 </r>
       <r>   -2.9057    0.0000 </r>
       <r>   -2.6939    0.0000 </r>
       <r>   -1.9266    0.0000 </r>
       <r>   -1.6856    0.0000 </r>
       <r>   -1.6229    0.0000 </r>
       <r>   -1.4511    0.0000 </r>
       <r>   -1.3058    0.0000 </r>
       <r>   -1.1193    0.0000 </r>
       <r>   -1.0604    0.0000 </r>
       <r>   -1.0047    0.0000 </r>
       <r>   -0.9653    0.0000 </r>
       <r>   -0.8008    0.0000 </r>
       <r>   -0.6362    0.0000 </r>
       <r>   -0.6047    0.0000 </r>
       <r>   -0.5100    0.0000 </r>
       <r>   -0.4237    0.0000 </r>
       <r>   -0.3901    0.0000 </r>
       <r>   -0.3272    0.0000 </r>
       <r>   -0.2409    0.0000 </r>
       <r>   -0.1274    0.0000 </r>
       <r>   -0.0413    0.0000 </r>
       <r>    0.0408    0.0000 </r>
       <r>    0.0838    0.0000 </r>
       <r>    0.1480    0.0000 </r>
       <r>    0.2271    0.0000 </r>
       <r>    0.2539    0.0000 </r>
       <r>    0.3094    0.0000 </r>
       <r>    0.4120    0.0000 </r>
       <r>    0.4260    0.0000 </r>
       <r>    0.4874    0.0000 </r>
       <r>    0.5813    0.0000 </r>
       <r>    0.6606    0.0000 </r>
       <r>    0.6877    0.0000 </r>
       <r>    0.7444    0.0000 </r>
      </set>
     </set>
    </set>
   </array>
  </eigenvalues>
  <separator name="orbital magnetization" >
   <v name="MAGDIPOLOUT">      0.00000000      0.00000000      0.00000000</v>
  </separator>
  <dos>
   <i name="efermi">     -7.09246954 </i>
   <total>
    <array>
     <dimension dim="1">gridpoints</dimension>
     <dimension dim="2">spin</dimension>
     <field>energy</field>
     <field>total</field>
     <field>integrated</field>
     <set>
      <set comment="spin 1">
       <r>   -51.6138     0.0000     0.0000 </r>
       <r>   -51.4309     0.0000     0.0000 </r>
       <r>   -51.2481     0.0000     0.0000 </r>
       <r>   -51.0653     0.0000     0.0000 </r>
       <r>   -50.8824     0.0000     0.0000 </r>
       <r>   -50.6996     0.0000     0.0000 </r>
       <r>   -50.5167     0.0000     0.0000 </r>
       <r>   -50.3339     0.0000     0.0000 </r>
       <r>   -50.1511     0.0000     0.0000 </r>
       <r>   -49.9682     0.0000     0.0000 </r>
       <r>   -49.7854     0.0000     0.0000 </r>
       <r>   -49.6025     0.0000     0.0000 </r>
       <r>   -49.4197     0.0000     0.0000 </r>
       <r>   -49.2369     0.0000     0.0000 </r>
       <r>   -49.0540    11.5517     2.1121 </r>
       <r>   -48.8712     0.0000     4.0000 </r>
       <r>   -48.6883    10.9386     6.0000 </r>
       <r>   -48.5055     0.0000     6.0000 </r>
       <r>   -48.3227     0.0000     6.0000 </r>
       <r>   -48.1398     0.0000     6.0000 </r>
       <r>   -47.9570     0.0000     6.0000 </r>
       <r>   -47.7741     0.0000     6.0000 </r>
       <r>   -47.5913     0.0000     6.0000 </r>
       <r>   -47.4085     0.0000     6.0000 </r>
       <r>   -47.2256     0.0000     6.0000 </r>
       <r>   -47.0428     0.0000     6.0000 </r>
       <r>   -46.8600     0.0000     6.0000 </r>
       <r>   -46.6771     0.0000     6.0000 </r>
       <r>   -46.4943     0.0000     6.0000 </r>
       <r>   -46.3114     0.0000     6.0000 </r>
       <r>   -46.1286     0.0000     6.0000 </r>
       <r>   -45.9458     0.0000     6.0000 </r>
       <r>   -45.7629     0.0000     6.0000 </r>
       <r>   -45.5801     0.0000     6.0000 </r>
       <r>   -45.3972     0.0000     6.0000 </r>
       <r>   -45.2144     0.0000     6.0000 </r>
       <r>   -45.0316     0.0000     6.0000 </r>
       <r>   -44.8487     0.0000     6.0000 </r>
       <r>   -44.6659     0.0000     6.0000 </r>
       <r>   -44.4830     0.0000     6.0000 </r>
       <r>   -44.3002     0.0000     6.0000 </r>
       <r>   -44.1174     0.0000     6.0000 </r>
       <r>   -43.9345     0.0000     6.0000 </r>
       <r>   -43.7517     0.0000     6.0000 </r>
       <r>   -43.5689     0.0000     6.0000 </r>
       <r>   -43.3860     0.0000     6.0000 </r>
       <r>   -43.2032     0.0000     6.0000 </r>
       <r>   -43.0203     0.0000     6.0000 </r>
       <r>   -42.8375     0.0000     6.0000 </r>
       <r>   -42.6547     0.0000     6.0000 </r>
       <r>   -42.4718     0.0000     6.0000 </r>
       <r>   -42.2890     0.0000     6.0000 </r>
       <r>   -42.1061     0.0000     6.0000 </r>
       <r>   -41.9233     0.0000     6.0000 </r>
       <r>   -41.7405     0.0000     6.0000 </r>
       <r>   -41.5576     0.0000     6.0000 </r>
       <r>   -41.3748     0.0000     6.0000 </r>
       <r>   -41.1919     0.0000     6.0000 </r>
       <r>   -41.0091     0.0000     6.0000 </r>
       <r>   -40.8263     0.0000     6.0000 </r>
       <r>   -40.6434     0.0000     6.0000 </r>
       <r>   -40.4606     0.0000     6.0000 </r>
       <r>   -40.2777     0.0000     6.0000 </r>
       <r>   -40.0949     0.0000     6.0000 </r>
       <r>   -39.9121     0.0000     6.0000 </r>
       <r>   -39.7292     0.0000     6.0000 </r>
       <r>   -39.5464     0.0000     6.0000 </r>
       <r>   -39.3636     0.0000     6.0000 </r>
       <r>   -39.1807     0.0000     6.0000 </r>
       <r>   -38.9979     0.0000     6.0000 </r>
       <r>   -38.8150     0.0000     6.0000 </r>
       <r>   -38.6322     0.0000     6.0000 </r>
       <r>   -38.4494     0.0000     6.0000 </r>
       <r>   -38.2665     0.0000     6.0000 </r>
       <r>   -38.0837     0.0000     6.0000 </r>
       <r>   -37.9008     0.0000     6.0000 </r>
       <r>   -37.7180     0.0000     6.0000 </r>
       <r>   -37.5352     0.0000     6.0000 </r>
       <r>   -37.3523     0.0000     6.0000 </r>
       <r>   -37.1695     0.0000     6.0000 </r>
       <r>   -36.9866     0.0000     6.0000 </r>
       <r>   -36.8038     0.0000     6.0000 </r>
       <r>   -36.6210     0.0000     6.0000 </r>
       <r>   -36.4381     0.0000     6.0000 </r>
       <r>   -36.2553     0.0000     6.0000 </r>
       <r>   -36.0725     0.0000     6.0000 </r>
       <r>   -35.8896     0.0000     6.0000 </r>
       <r>   -35.7068     0.0000     6.0000 </r>
       <r>   -35.5239     0.0000     6.0000 </r>
       <r>   -35.3411     0.0000     6.0000 </r>
       <r>   -35.1583     0.0000     6.0000 </r>
       <r>   -34.9754     0.0000     6.0000 </r>
       <r>   -34.7926     0.0000     6.0000 </r>
       <r>   -34.6097     0.0000     6.0000 </r>
       <r>   -34.4269     0.0000     6.0000 </r>
       <r>   -34.2441     0.0000     6.0000 </r>
       <r>   -34.0612     0.0000     6.0000 </r>
       <r>   -33.8784     0.0000     6.0000 </r>
       <r>   -33.6955     0.0000     6.0000 </r>
       <r>   -33.5127     0.0000     6.0000 </r>
       <r>   -33.3299     0.0000     6.0000 </r>
       <r>   -33.1470     0.0000     6.0000 </r>
       <r>   -32.9642     0.0000     6.0000 </r>
       <r>   -32.7814     0.0000     6.0000 </r>
       <r>   -32.5985     0.0000     6.0000 </r>
       <r>   -32.4157     0.0000     6.0000 </r>
       <r>   -32.2328     0.0000     6.0000 </r>
       <r>   -32.0500     0.0000     6.0000 </r>
       <r>   -31.8672     0.0000     6.0000 </r>
       <r>   -31.6843     0.0000     6.0000 </r>
       <r>   -31.5015     0.0000     6.0000 </r>
       <r>   -31.3186     0.0000     6.0000 </r>
       <r>   -31.1358     0.0000     6.0000 </r>
       <r>   -30.9530     0.0000     6.0000 </r>
       <r>   -30.7701     0.0000     6.0000 </r>
       <r>   -30.5873     0.0000     6.0000 </r>
       <r>   -30.4044     0.0000     6.0000 </r>
       <r>   -30.2216     0.0000     6.0000 </r>
       <r>   -30.0388     0.0000     6.0000 </r>
       <r>   -29.8559     0.0000     6.0000 </r>
       <r>   -29.6731     0.0000     6.0000 </r>
       <r>   -29.4902     0.0000     6.0000 </r>
       <r>   -29.3074     0.0000     6.0000 </r>
       <r>   -29.1246    10.9386     8.0000 </r>
       <r>   -28.9417     0.0000     8.0000 </r>
       <r>   -28.7589     0.0000     8.0000 </r>
       <r>   -28.5761     0.0000     8.0000 </r>
       <r>   -28.3932     0.0000     8.0000 </r>
       <r>   -28.2104     0.0000     8.0000 </r>
       <r>   -28.0275     0.0000     8.0000 </r>
       <r>   -27.8447     0.0000     8.0000 </r>
       <r>   -27.6619     0.0000     8.0000 </r>
       <r>   -27.4790     0.0000     8.0000 </r>
       <r>   -27.2962     0.0000    10.0000 </r>
       <r>   -27.1133     0.0000    10.0000 </r>
       <r>   -26.9305     0.0000    10.0000 </r>
       <r>   -26.7477     0.0000    12.0000 </r>
       <r>   -26.5648     0.0000    12.0000 </r>
       <r>   -26.3820     0.0000    14.0000 </r>
       <r>   -26.1991     0.0000    14.0000 </r>
       <r>   -26.0163     0.0000    18.0000 </r>
       <r>   -25.8335     0.0000    18.0000 </r>
       <r>   -25.6506     0.0000    18.0000 </r>
       <r>   -25.4678     0.0000    18.0000 </r>
       <r>   -25.2850     0.0000    18.0000 </r>
       <r>   -25.1021     0.0000    18.0000 </r>
       <r>   -24.9193     0.0000    18.0000 </r>
       <r>   -24.7364     0.0000    18.0000 </r>
       <r>   -24.5536     0.0000    18.0000 </r>
       <r>   -24.3708     0.0000    18.0000 </r>
       <r>   -24.1879    10.8710    19.9876 </r>
       <r>   -24.0051     0.0000    20.0000 </r>
       <r>   -23.8222     0.0000    20.0000 </r>
       <r>   -23.6394     0.0000    20.0000 </r>
       <r>   -23.4566     0.0000    20.0000 </r>
       <r>   -23.2737     0.0000    20.0000 </r>
       <r>   -23.0909     0.0000    20.0000 </r>
       <r>   -22.9080     4.6571    20.8515 </r>
       <r>   -22.7252     0.0000    22.0000 </r>
       <r>   -22.5424     0.7266    22.1328 </r>
       <r>   -22.3595    10.9386    26.0000 </r>
       <r>   -22.1767     3.4996    28.6399 </r>
       <r>   -21.9938     0.0036    30.0007 </r>
       <r>   -21.8110     0.0000    32.0000 </r>
       <r>   -21.6282     0.0000    32.0000 </r>
       <r>   -21.4453     0.0000    32.0000 </r>
       <r>   -21.2625     0.0000    34.0000 </r>
       <r>   -21.0797     0.0000    34.0000 </r>
       <r>   -20.8968     0.0000    36.0000 </r>
       <r>   -20.7140    10.9386    38.0000 </r>
       <r>   -20.5311     0.0000    38.0000 </r>
       <r>   -20.3483     0.0000    38.0000 </r>
       <r>   -20.1655     0.0000    38.0000 </r>
       <r>   -19.9826     0.0000    38.0000 </r>
       <r>   -19.7998     0.0000    38.0000 </r>
       <r>   -19.6169     0.0000    38.0000 </r>
       <r>   -19.4341    19.2508    41.5198 </r>
       <r>   -19.2513     0.0000    42.0000 </r>
       <r>   -19.0684     0.0000    42.0000 </r>
       <r>   -18.8856     0.0000    42.0000 </r>
       <r>   -18.7027    10.0756    43.8422 </r>
       <r>   -18.5199     0.0000    44.0000 </r>
       <r>   -18.3371     0.0000    46.0000 </r>
       <r>   -18.1542     0.0167    46.0031 </r>
       <r>   -17.9714     7.9783    49.4588 </r>
       <r>   -17.7886     1.3144    50.2403 </r>
       <r>   -17.6057     0.0566    52.0103 </r>
       <r>   -17.4229     0.0000    56.0000 </r>
       <r>   -17.2400    10.9386    58.0000 </r>
       <r>   -17.0572     0.0000    58.0000 </r>
       <r>   -16.8744     0.9332    58.1706 </r>
       <r>   -16.6915     0.0000    60.0000 </r>
       <r>   -16.5087    10.9386    62.0000 </r>
       <r>   -16.3258     0.0000    62.0000 </r>
       <r>   -16.1430     0.0000    62.0000 </r>
       <r>   -15.9602     0.0000    62.0000 </r>
       <r>   -15.7773     0.0001    64.0000 </r>
       <r>   -15.5945     0.0000    66.0000 </r>
       <r>   -15.4116     0.0000    66.0000 </r>
       <r>   -15.2288     0.0334    68.0061 </r>
       <r>   -15.0460     0.0000    70.0000 </r>
       <r>   -14.8631     0.0000    70.0000 </r>
       <r>   -14.6803    26.5594    74.8561 </r>
       <r>   -14.4974     0.0000    76.0000 </r>
       <r>   -14.3146     0.3746    76.0685 </r>
       <r>   -14.1318     0.0000    78.0000 </r>
       <r>   -13.9489    20.6052    85.7674 </r>
       <r>   -13.7661     4.9774    88.9101 </r>
       <r>   -13.5833     0.0000    92.0000 </r>
       <r>   -13.4004     0.0000    92.0000 </r>
       <r>   -13.2176     0.0548    96.0100 </r>
       <r>   -13.0347     0.0000   100.0000 </r>
       <r>   -12.8519    15.9984   102.9251 </r>
       <r>   -12.6691     2.7892   104.5100 </r>
       <r>   -12.4862    10.9386   110.0000 </r>
       <r>   -12.3034     0.6230   112.1139 </r>
       <r>   -12.1205    10.9386   118.0000 </r>
       <r>   -11.9377     0.0000   120.0000 </r>
       <r>   -11.7549     0.0000   120.0000 </r>
       <r>   -11.5720     0.8084   120.1478 </r>
       <r>   -11.3892    10.9386   124.0000 </r>
       <r>   -11.2063    14.0474   126.5684 </r>
       <r>   -11.0235    10.9323   131.9989 </r>
       <r>   -10.8407     0.0000   132.0000 </r>
       <r>   -10.6578    10.8098   135.9764 </r>
       <r>   -10.4750     0.0000   136.0000 </r>
       <r>   -10.2922    10.9386   140.0000 </r>
       <r>   -10.1093     0.0000   140.0000 </r>
       <r>    -9.9265    21.8721   143.9991 </r>
       <r>    -9.7436    10.5640   147.9315 </r>
       <r>    -9.5608     0.0000   152.0000 </r>
       <r>    -9.3780     0.0000   152.0000 </r>
       <r>    -9.1951     0.0000   154.0000 </r>
       <r>    -9.0123     0.0000   154.0000 </r>
       <r>    -8.8294    10.9386   156.0000 </r>
       <r>    -8.6466    10.1280   157.8518 </r>
       <r>    -8.4638     0.0000   158.0000 </r>
       <r>    -8.2809    10.9386   160.0000 </r>
       <r>    -8.0981     0.0000   160.0000 </r>
       <r>    -7.9152     0.0000   160.0000 </r>
       <r>    -7.7324     0.0000   160.0000 </r>
       <r>    -7.5496     0.0000   160.0000 </r>
       <r>    -7.3667     0.0000   162.0000 </r>
       <r>    -7.1839    11.0043   164.0120 </r>
       <r>    -7.0011     0.0000   166.0000 </r>
       <r>    -6.8182     0.0000   166.0000 </r>
       <r>    -6.6354     0.0000   166.0000 </r>
       <r>    -6.4525     0.0000   166.0000 </r>
       <r>    -6.2697     0.0000   166.0000 </r>
       <r>    -6.0869     0.0000   166.0000 </r>
       <r>    -5.9040     0.0000   166.0000 </r>
       <r>    -5.7212    10.9369   167.9997 </r>
       <r>    -5.5383     0.0000   168.0000 </r>
       <r>    -5.3555     0.0000   168.0000 </r>
       <r>    -5.1727     0.0000   168.0000 </r>
       <r>    -4.9898     0.0000   170.0000 </r>
       <r>    -4.8070     0.0000   172.0000 </r>
       <r>    -4.6241     0.0000   172.0000 </r>
       <r>    -4.4413     0.0000   172.0000 </r>
       <r>    -4.2585     0.0000   174.0000 </r>
       <r>    -4.0756    11.1157   176.0324 </r>
       <r>    -3.8928    11.8517   180.1669 </r>
       <r>    -3.7099     0.0000   182.0000 </r>
       <r>    -3.5271     0.0000   182.0000 </r>
       <r>    -3.3443     0.0003   184.0001 </r>
       <r>    -3.1614     1.6134   186.2950 </r>
       <r>    -2.9786     0.0000   188.0000 </r>
       <r>    -2.7958     0.0000   190.0000 </r>
       <r>    -2.6129     0.0000   192.0000 </r>
       <r>    -2.4301     0.0000   192.0000 </r>
       <r>    -2.2472     0.0000   192.0000 </r>
       <r>    -2.0644     0.0000   192.0000 </r>
       <r>    -1.8816    10.9386   194.0000 </r>
       <r>    -1.6987     0.3485   194.0637 </r>
       <r>    -1.5159     0.0000   198.0000 </r>
       <r>    -1.3330     0.0006   200.0001 </r>
       <r>    -1.1502     0.0001   202.0000 </r>
       <r>    -0.9674    15.1357   208.7674 </r>
       <r>    -0.7845    10.8207   211.9785 </r>
       <r>    -0.6017    18.2102   215.3295 </r>
       <r>    -0.4188     8.2507   219.5085 </r>
       <r>    -0.2360     8.2864   225.5151 </r>
       <r>    -0.0532    11.4499   228.0935 </r>
       <r>     0.1297    10.9903   234.0095 </r>
       <r>     0.3125    18.2687   241.3402 </r>
       <r>     0.4953    20.4605   247.7410 </r>
       <r>     0.6782    11.8453   252.1658 </r>
       <r>     0.8610     0.0000   256.0000 </r>
       <r>     1.0439     0.0000   256.0000 </r>
       <r>     1.2267     0.0000   256.0000 </r>
       <r>     1.4095     0.0000   256.0000 </r>
       <r>     1.5924     0.0000   256.0000 </r>
       <r>     1.7752     0.0000   256.0000 </r>
       <r>     1.9581     0.0000   256.0000 </r>
       <r>     2.1409     0.0000   256.0000 </r>
       <r>     2.3237     0.0000   256.0000 </r>
       <r>     2.5066     0.0000   256.0000 </r>
       <r>     2.6894     0.0000   256.0000 </r>
       <r>     2.8723     0.0000   256.0000 </r>
       <r>     3.0551     0.0000   256.0000 </r>
       <r>     3.2379     0.0000   256.0000 </r>
      </set>
      <set comment="spin 2">
       <r>   -51.6138     0.0000     0.0000 </r>
       <r>   -51.4309     0.0000     0.0000 </r>
       <r>   -51.2481     0.0000     0.0000 </r>
       <r>   -51.0653     0.0000     0.0000 </r>
       <r>   -50.8824     0.0000     0.0000 </r>
       <r>   -50.6996     0.0000     0.0000 </r>
       <r>   -50.5167     0.0000     0.0000 </r>
       <r>   -50.3339     0.0000     0.0000 </r>
       <r>   -50.1511     0.0000     0.0000 </r>
       <r>   -49.9682     0.0000     0.0000 </r>
       <r>   -49.7854     0.0000     0.0000 </r>
       <r>   -49.6025     0.0000     0.0000 </r>
       <r>   -49.4197     0.0000     0.0000 </r>
       <r>   -49.2369     0.0000     0.0000 </r>
       <r>   -49.0540    11.5517     2.1121 </r>
       <r>   -48.8712     0.0000     4.0000 </r>
       <r>   -48.6883    10.9386     6.0000 </r>
       <r>   -48.5055     0.0000     6.0000 </r>
       <r>   -48.3227     0.0000     6.0000 </r>
       <r>   -48.1398     0.0000     6.0000 </r>
       <r>   -47.9570     0.0000     6.0000 </r>
       <r>   -47.7741     0.0000     6.0000 </r>
       <r>   -47.5913     0.0000     6.0000 </r>
       <r>   -47.4085     0.0000     6.0000 </r>
       <r>   -47.2256     0.0000     6.0000 </r>
       <r>   -47.0428     0.0000     6.0000 </r>
       <r>   -46.8600     0.0000     6.0000 </r>
       <r>   -46.6771     0.0000     6.0000 </r>
       <r>   -46.4943     0.0000     6.0000 </r>
       <r>   -46.3114     0.0000     6.0000 </r>
       <r>   -46.1286     0.0000     6.0000 </r>
       <r>   -45.9458     0.0000     6.0000 </r>
       <r>   -45.7629     0.0000     6.0000 </r>
       <r>   -45.5801     0.0000     6.0000 </r>
       <r>   -45.3972     0.0000     6.0000 </r>
       <r>   -45.2144     0.0000     6.0000 </r>
       <r>   -45.0316     0.0000     6.0000 </r>
       <r>   -44.8487     0.0000     6.0000 </r>
       <r>   -44.6659     0.0000     6.0000 </r>
       <r>   -44.4830     0.0000     6.0000 </r>
       <r>   -44.3002     0.0000     6.0000 </r>
       <r>   -44.1174     0.0000     6.0000 </r>
       <r>   -43.9345     0.0000     6.0000 </r>
       <r>   -43.7517     0.0000     6.0000 </r>
       <r>   -43.5689     0.0000     6.0000 </r>
       <r>   -43.3860     0.0000     6.0000 </r>
       <r>   -43.2032     0.0000     6.0000 </r>
       <r>   -43.0203     0.0000     6.0000 </r>
       <r>   -42.8375     0.0000     6.0000 </r>
       <r>   -42.6547     0.0000     6.0000 </r>
       <r>   -42.4718     0.0000     6.0000 </r>
       <r>   -42.2890     0.0000     6.0000 </r>
       <r>   -42.1061     0.0000     6.0000 </r>
       <r>   -41.9233     0.0000     6.0000 </r>
       <r>   -41.7405     0.0000     6.0000 </r>
       <r>   -41.5576     0.0000     6.0000 </r>
       <r>   -41.3748     0.0000     6.0000 </r>
       <r>   -41.1919     0.0000     6.0000 </r>
       <r>   -41.0091     0.0000     6.0000 </r>
       <r>   -40.8263     0.0000     6.0000 </r>
       <r>   -40.6434     0.0000     6.0000 </r>
       <r>   -40.4606     0.0000     6.0000 </r>
       <r>   -40.2777     0.0000     6.0000 </r>
       <r>   -40.0949     0.0000     6.0000 </r>
       <r>   -39.9121     0.0000     6.0000 </r>
       <r>   -39.7292     0.0000     6.0000 </r>
       <r>   -39.5464     0.0000     6.0000 </r>
       <r>   -39.3636     0.0000     6.0000 </r>
       <r>   -39.1807     0.0000     6.0000 </r>
       <r>   -38.9979     0.0000     6.0000 </r>
       <r>   -38.8150     0.0000     6.0000 </r>
       <r>   -38.6322     0.0000     6.0000 </r>
       <r>   -38.4494     0.0000     6.0000 </r>
       <r>   -38.2665     0.0000     6.0000 </r>
       <r>   -38.0837     0.0000     6.0000 </r>
       <r>   -37.9008     0.0000     6.0000 </r>
       <r>   -37.7180     0.0000     6.0000 </r>
       <r>   -37.5352     0.0000     6.0000 </r>
       <r>   -37.3523     0.0000     6.0000 </r>
       <r>   -37.1695     0.0000     6.0000 </r>
       <r>   -36.9866     0.0000     6.0000 </r>
       <r>   -36.8038     0.0000     6.0000 </r>
       <r>   -36.6210     0.0000     6.0000 </r>
       <r>   -36.4381     0.0000     6.0000 </r>
       <r>   -36.2553     0.0000     6.0000 </r>
       <r>   -36.0725     0.0000     6.0000 </r>
       <r>   -35.8896     0.0000     6.0000 </r>
       <r>   -35.7068     0.0000     6.0000 </r>
       <r>   -35.5239     0.0000     6.0000 </r>
       <r>   -35.3411     0.0000     6.0000 </r>
       <r>   -35.1583     0.0000     6.0000 </r>
       <r>   -34.9754     0.0000     6.0000 </r>
       <r>   -34.7926     0.0000     6.0000 </r>
       <r>   -34.6097     0.0000     6.0000 </r>
       <r>   -34.4269     0.0000     6.0000 </r>
       <r>   -34.2441     0.0000     6.0000 </r>
       <r>   -34.0612     0.0000     6.0000 </r>
       <r>   -33.8784     0.0000     6.0000 </r>
       <r>   -33.6955     0.0000     6.0000 </r>
       <r>   -33.5127     0.0000     6.0000 </r>
       <r>   -33.3299     0.0000     6.0000 </r>
       <r>   -33.1470     0.0000     6.0000 </r>
       <r>   -32.9642     0.0000     6.0000 </r>
       <r>   -32.7814     0.0000     6.0000 </r>
       <r>   -32.5985     0.0000     6.0000 </r>
       <r>   -32.4157     0.0000     6.0000 </r>
       <r>   -32.2328     0.0000     6.0000 </r>
       <r>   -32.0500     0.0000     6.0000 </r>
       <r>   -31.8672     0.0000     6.0000 </r>
       <r>   -31.6843     0.0000     6.0000 </r>
       <r>   -31.5015     0.0000     6.0000 </r>
       <r>   -31.3186     0.0000     6.0000 </r>
       <r>   -31.1358     0.0000     6.0000 </r>
       <r>   -30.9530     0.0000     6.0000 </r>
       <r>   -30.7701     0.0000     6.0000 </r>
       <r>   -30.5873     0.0000     6.0000 </r>
       <r>   -30.4044     0.0000     6.0000 </r>
       <r>   -30.2216     0.0000     6.0000 </r>
       <r>   -30.0388     0.0000     6.0000 </r>
       <r>   -29.8559     0.0000     6.0000 </r>
       <r>   -29.6731     0.0000     6.0000 </r>
       <r>   -29.4902     0.0000     6.0000 </r>
       <r>   -29.3074     0.0000     6.0000 </r>
       <r>   -29.1246    10.9386     8.0000 </r>
       <r>   -28.9417     0.0000     8.0000 </r>
       <r>   -28.7589     0.0000     8.0000 </r>
       <r>   -28.5761     0.0000     8.0000 </r>
       <r>   -28.3932     0.0000     8.0000 </r>
       <r>   -28.2104     0.0000     8.0000 </r>
       <r>   -28.0275     0.0000     8.0000 </r>
       <r>   -27.8447     0.0000     8.0000 </r>
       <r>   -27.6619     0.0000     8.0000 </r>
       <r>   -27.4790     0.0000     8.0000 </r>
       <r>   -27.2962     0.0000    10.0000 </r>
       <r>   -27.1133     0.0000    10.0000 </r>
       <r>   -26.9305     0.0000    10.0000 </r>
       <r>   -26.7477     0.0000    12.0000 </r>
       <r>   -26.5648     0.0000    12.0000 </r>
       <r>   -26.3820     0.0000    14.0000 </r>
       <r>   -26.1991     0.0000    14.0000 </r>
       <r>   -26.0163     0.0000    18.0000 </r>
       <r>   -25.8335     0.0000    18.0000 </r>
       <r>   -25.6506     0.0000    18.0000 </r>
       <r>   -25.4678     0.0000    18.0000 </r>
       <r>   -25.2850     0.0000    18.0000 </r>
       <r>   -25.1021     0.0000    18.0000 </r>
       <r>   -24.9193     0.0000    18.0000 </r>
       <r>   -24.7364     0.0000    18.0000 </r>
       <r>   -24.5536     0.0000    18.0000 </r>
       <r>   -24.3708     0.0000    18.0000 </r>
       <r>   -24.1879    10.8710    19.9876 </r>
       <r>   -24.0051     0.0000    20.0000 </r>
       <r>   -23.8222     0.0000    20.0000 </r>
       <r>   -23.6394     0.0000    20.0000 </r>
       <r>   -23.4566     0.0000    20.0000 </r>
       <r>   -23.2737     0.0000    20.0000 </r>
       <r>   -23.0909     0.0000    20.0000 </r>
       <r>   -22.9080     4.6571    20.8515 </r>
       <r>   -22.7252     0.0000    22.0000 </r>
       <r>   -22.5424     0.7266    22.1328 </r>
       <r>   -22.3595    10.9386    26.0000 </r>
       <r>   -22.1767     3.4996    28.6399 </r>
       <r>   -21.9938     0.0036    30.0007 </r>
       <r>   -21.8110     0.0000    32.0000 </r>
       <r>   -21.6282     0.0000    32.0000 </r>
       <r>   -21.4453     0.0000    32.0000 </r>
       <r>   -21.2625     0.0000    34.0000 </r>
       <r>   -21.0797     0.0000    34.0000 </r>
       <r>   -20.8968     0.0000    36.0000 </r>
       <r>   -20.7140    10.9386    38.0000 </r>
       <r>   -20.5311     0.0000    38.0000 </r>
       <r>   -20.3483     0.0000    38.0000 </r>
       <r>   -20.1655     0.0000    38.0000 </r>
       <r>   -19.9826     0.0000    38.0000 </r>
       <r>   -19.7998     0.0000    38.0000 </r>
       <r>   -19.6169     0.0000    38.0000 </r>
       <r>   -19.4341    19.2507    41.5198 </r>
       <r>   -19.2513     0.0000    42.0000 </r>
       <r>   -19.0684     0.0000    42.0000 </r>
       <r>   -18.8856     0.0000    42.0000 </r>
       <r>   -18.7027    10.0756    43.8422 </r>
       <r>   -18.5199     0.0000    44.0000 </r>
       <r>   -18.3371     0.0000    46.0000 </r>
       <r>   -18.1542     0.0167    46.0031 </r>
       <r>   -17.9714     7.9784    49.4588 </r>
       <r>   -17.7886     1.3144    50.2403 </r>
       <r>   -17.6057     0.0566    52.0103 </r>
       <r>   -17.4229     0.0000    56.0000 </r>
       <r>   -17.2400    10.9386    58.0000 </r>
       <r>   -17.0572     0.0000    58.0000 </r>
       <r>   -16.8744     0.9332    58.1706 </r>
       <r>   -16.6915     0.0000    60.0000 </r>
       <r>   -16.5087    10.9386    62.0000 </r>
       <r>   -16.3258     0.0000    62.0000 </r>
       <r>   -16.1430     0.0000    62.0000 </r>
       <r>   -15.9602     0.0000    62.0000 </r>
       <r>   -15.7773     0.0001    64.0000 </r>
       <r>   -15.5945     0.0000    66.0000 </r>
       <r>   -15.4116     0.0000    66.0000 </r>
       <r>   -15.2288     0.0334    68.0061 </r>
       <r>   -15.0460     0.0000    70.0000 </r>
       <r>   -14.8631     0.0000    70.0000 </r>
       <r>   -14.6803    26.5594    74.8561 </r>
       <r>   -14.4974     0.0000    76.0000 </r>
       <r>   -14.3146     0.3746    76.0685 </r>
       <r>   -14.1318     0.0000    78.0000 </r>
       <r>   -13.9489    20.6052    85.7674 </r>
       <r>   -13.7661     4.9773    88.9101 </r>
       <r>   -13.5833     0.0000    92.0000 </r>
       <r>   -13.4004     0.0000    92.0000 </r>
       <r>   -13.2176     0.0548    96.0100 </r>
       <r>   -13.0347     0.0000   100.0000 </r>
       <r>   -12.8519    15.9984   102.9251 </r>
       <r>   -12.6691     2.7892   104.5100 </r>
       <r>   -12.4862    10.9386   110.0000 </r>
       <r>   -12.3034     0.6230   112.1139 </r>
       <r>   -12.1205    10.9386   118.0000 </r>
       <r>   -11.9377     0.0000   120.0000 </r>
       <r>   -11.7549     0.0000   120.0000 </r>
       <r>   -11.5720     0.8084   120.1478 </r>
       <r>   -11.3892    10.9386   124.0000 </r>
       <r>   -11.2063    14.0474   126.5684 </r>
       <r>   -11.0235    10.9323   131.9989 </r>
       <r>   -10.8407     0.0000   132.0000 </r>
       <r>   -10.6578    10.8098   135.9764 </r>
       <r>   -10.4750     0.0000   136.0000 </r>
       <r>   -10.2922    10.9386   140.0000 </r>
       <r>   -10.1093     0.0000   140.0000 </r>
       <r>    -9.9265    21.8721   143.9991 </r>
       <r>    -9.7436    10.5640   147.9315 </r>
       <r>    -9.5608     0.0000   152.0000 </r>
       <r>    -9.3780     0.0000   152.0000 </r>
       <r>    -9.1951     0.0000   154.0000 </r>
       <r>    -9.0123     0.0000   154.0000 </r>
       <r>    -8.8294    10.9386   156.0000 </r>
       <r>    -8.6466    10.1280   157.8518 </r>
       <r>    -8.4638     0.0000   158.0000 </r>
       <r>    -8.2809    10.9386   160.0000 </r>
       <r>    -8.0981     0.0000   160.0000 </r>
       <r>    -7.9152     0.0000   160.0000 </r>
       <r>    -7.7324     0.0000   160.0000 </r>
       <r>    -7.5496     0.0000   160.0000 </r>
       <r>    -7.3667     0.0000   162.0000 </r>
       <r>    -7.1839    11.0043   164.0120 </r>
       <r>    -7.0011     0.0000   166.0000 </r>
       <r>    -6.8182     0.0000   166.0000 </r>
       <r>    -6.6354     0.0000   166.0000 </r>
       <r>    -6.4525     0.0000   166.0000 </r>
       <r>    -6.2697     0.0000   166.0000 </r>
       <r>    -6.0869     0.0000   166.0000 </r>
       <r>    -5.9040     0.0000   166.0000 </r>
       <r>    -5.7212    10.9369   167.9997 </r>
       <r>    -5.5383     0.0000   168.0000 </r>
       <r>    -5.3555     0.0000   168.0000 </r>
       <r>    -5.1727     0.0000   168.0000 </r>
       <r>    -4.9898     0.0000   170.0000 </r>
       <r>    -4.8070     0.0000   172.0000 </r>
       <r>    -4.6241     0.0000   172.0000 </r>
       <r>    -4.4413     0.0000   172.0000 </r>
       <r>    -4.2585     0.0000   174.0000 </r>
       <r>    -4.0756    11.1157   176.0324 </r>
       <r>    -3.8928    11.8518   180.1670 </r>
       <r>    -3.7099     0.0000   182.0000 </r>
       <r>    -3.5271     0.0000   182.0000 </r>
       <r>    -3.3443     0.0003   184.0001 </r>
       <r>    -3.1614     1.6135   186.2950 </r>
       <r>    -2.9786     0.0000   188.0000 </r>
       <r>    -2.7958     0.0000   190.0000 </r>
       <r>    -2.6129     0.0000   192.0000 </r>
       <r>    -2.4301     0.0000   192.0000 </r>
       <r>    -2.2472     0.0000   192.0000 </r>
       <r>    -2.0644     0.0000   192.0000 </r>
       <r>    -1.8816    10.9386   194.0000 </r>
       <r>    -1.6987     0.3487   194.0638 </r>
       <r>    -1.5159     0.0000   198.0000 </r>
       <r>    -1.3330     0.0006   200.0001 </r>
       <r>    -1.1502     0.0001   202.0000 </r>
       <r>    -0.9674    15.1363   208.7675 </r>
       <r>    -0.7845    10.8207   211.9785 </r>
       <r>    -0.6017    18.2104   215.3296 </r>
       <r>    -0.4188     8.2504   219.5085 </r>
       <r>    -0.2360     8.2872   225.5152 </r>
       <r>    -0.0532    11.4499   228.0935 </r>
       <r>     0.1297    10.9903   234.0095 </r>
       <r>     0.3125    18.2684   241.3402 </r>
       <r>     0.4953    20.4596   247.7408 </r>
       <r>     0.6782    11.8520   252.1670 </r>
       <r>     0.8610     0.0000   256.0000 </r>
       <r>     1.0439     0.0000   256.0000 </r>
       <r>     1.2267     0.0000   256.0000 </r>
       <r>     1.4095     0.0000   256.0000 </r>
       <r>     1.5924     0.0000   256.0000 </r>
       <r>     1.7752     0.0000   256.0000 </r>
       <r>     1.9581     0.0000   256.0000 </r>
       <r>     2.1409     0.0000   256.0000 </r>
       <r>     2.3237     0.0000   256.0000 </r>
       <r>     2.5066     0.0000   256.0000 </r>
       <r>     2.6894     0.0000   256.0000 </r>
       <r>     2.8723     0.0000   256.0000 </r>
       <r>     3.0551     0.0000   256.0000 </r>
       <r>     3.2379     0.0000   256.0000 </r>
      </set>
     </set>
    </array>
   </total>
  </dos>
 </calculation>
 <structure name="finalpos" >
  <crystal>
   <varray name="basis" >
    <v>      20.00000000       0.00000000       0.00000000 </v>
    <v>       0.00000000      20.00000000       0.00000000 </v>
    <v>       0.00000000       0.00000000      20.00000000 </v>
   </varray>
   <i name="volume">   8000.00000000 </i>
   <varray name="rec_basis" >
    <v>       0.05000000       0.00000000       0.00000000 </v>
    <v>       0.00000000       0.05000000       0.00000000 </v>
    <v>       0.00000000       0.00000000       0.05000000 </v>
   </varray>
  </crystal>
  <varray name="positions" >
   <v>       0.59134754       0.33224398       0.68903016 </v>
   <v>       0.43793752       0.56561110       0.32757008 </v>
   <v>       0.45581208       0.52423376       0.38051465 </v>
   <v>       0.47372925       0.61530131       0.44986522 </v>
   <v>       0.45595175       0.65963312       0.39935201 </v>
   <v>       0.43785737       0.63472201       0.33675972 </v>
   <v>       0.52307882       0.32955005       0.67474498 </v>
   <v>       0.49710163       0.37190466       0.62618823 </v>
   <v>       0.60227374       0.41933300       0.60593616 </v>
   <v>       0.63096398       0.37761922       0.65422416 </v>
   <v>       0.73964927       0.52855915       0.53463181 </v>
   <v>       0.70082162       0.56612858       0.49044049 </v>
   <v>       0.63257913       0.55363620       0.48652424 </v>
   <v>       0.63952130       0.46927713       0.56732841 </v>
   <v>       0.70843899       0.47974495       0.57314689 </v>
   <v>       0.29334713       0.47671938       0.56830116 </v>
   <v>       0.36211554       0.48866484       0.56417415 </v>
   <v>       0.40790931       0.62211625       0.69058213 </v>
   <v>       0.47619960       0.62606623       0.67660612 </v>
   <v>       0.50295190       0.58590820       0.62668073 </v>
   <v>       0.39825425       0.53800137       0.60426081 </v>
   <v>       0.36904589       0.57756069       0.65398228 </v>
   <v>       0.37289802       0.40579857       0.48223443 </v>
   <v>       0.30486503       0.39173492       0.48443166 </v>
   <v>       0.26422003       0.42785518       0.52821594 </v>
   <v>       0.48989745       0.29510618       0.70074864 </v>
   <v>       0.61334240       0.29968355       0.72673159 </v>
   <v>       0.68424189       0.38076917       0.66478776 </v>
   <v>       0.54225374       0.36233861       0.46129841 </v>
   <v>       0.31579090       0.57306911       0.66420366 </v>
   <v>       0.44416348       0.37118871       0.61364770 </v>
   <v>       0.42392665       0.66833230       0.29622671 </v>
   <v>       0.45642762       0.71313270       0.40950260 </v>
   <v>       0.48809132       0.63358802       0.49907234 </v>
   <v>       0.56912778       0.41808713       0.41480476 </v>
   <v>       0.73767440       0.44963919       0.60776512 </v>
   <v>       0.72277620       0.60481012       0.45904817 </v>
   <v>       0.45570253       0.47012894       0.37468790 </v>
   <v>       0.40614333       0.37888556       0.44852541 </v>
   <v>       0.28443799       0.35306162       0.45202062 </v>
   <v>       0.79326502       0.53703787       0.53892527 </v>
   <v>       0.55589708       0.58769132       0.61440612 </v>
   <v>       0.42412006       0.54328620       0.27986105 </v>
   <v>       0.50894741       0.65984570       0.70400156 </v>
   <v>       0.26265982       0.50568523       0.60265428 </v>
   <v>       0.21072272       0.41813760       0.53105039 </v>
   <v>       0.60090654       0.58197914       0.45254259 </v>
   <v>       0.38544357       0.65296704       0.72941133 </v>
   <v>       0.47424490       0.54794204       0.44140236 </v>
   <v>       0.40180479       0.45306079       0.52108436 </v>
   <v>       0.53520702       0.41608490       0.59173240 </v>
   <v>       0.46544808       0.54254992       0.59041194 </v>
   <v>       0.60138410       0.50650621       0.52397638 </v>
   <v>       0.53073984       0.40562607       0.44215451 </v>
   <v>       0.50088568       0.48087016       0.51934246 </v>
  </varray>
  <varray name="selective"  type="logical" >
   <v type="logical" >  T  T  T </v>
   <v type="logical" >  T  T  T </v>
   <v type="logical" >  T  T  T </v>
   <v type="logical" >  T  T  T </v>
   <v type="logical" >  T  T  T </v>
   <v type="logical" >  T  T  T </v>
   <v type="logical" >  T  T  T </v>
   <v type="logical" >  T  T  T </v>
   <v type="logical" >  T  T  T </v>
   <v type="logical" >  T  T  T </v>
   <v type="logical" >  T  T  T </v>
   <v type="logical" >  T  T  T </v>
   <v type="logical" >  T  T  T </v>
   <v type="logical" >  T  T  T </v>
   <v type="logical" >  T  T  T </v>
   <v type="logical" >  T  T  T </v>
   <v type="logical" >  T  T  T </v>
   <v type="logical" >  T  T  T </v>
   <v type="logical" >  T  T  T </v>
   <v type="logical" >  T  T  T </v>
   <v type="logical" >  T  T  T </v>
   <v type="logical" >  T  T  T </v>
   <v type="logical" >  T  T  T </v>
   <v type="logical" >  T  T  T </v>
   <v type="logical" >  T  T  T </v>
   <v type="logical" >  T  T  T </v>
   <v type="logical" >  T  T  T </v>
   <v type="logical" >  T  T  T </v>
   <v type="logical" >  T  T  T </v>
   <v type="logical" >  T  T  T </v>
   <v type="logical" >  T  T  T </v>
   <v type="logical" >  T  T  T </v>
   <v type="logical" >  T  T  T </v>
   <v type="logical" >  T  T  T </v>
   <v type="logical" >  T  T  T </v>
   <v type="logical" >  T  T  T </v>
   <v type="logical" >  T  T  T </v>
   <v type="logical" >  T  T  T </v>
   <v type="logical" >  T  T  T </v>
   <v type="logical" >  T  T  T </v>
   <v type="logical" >  T  T  T </v>
   <v type="logical" >  T  T  T </v>
   <v type="logical" >  T  T  T </v>
   <v type="logical" >  T  T  T </v>
   <v type="logical" >  T  T  T </v>
   <v type="logical" >  T  T  T </v>
   <v type="logical" >  T  T  T </v>
   <v type="logical" >  T  T  T </v>
   <v type="logical" >  T  T  T </v>
   <v type="logical" >  T  T  T </v>
   <v type="logical" >  T  T  T </v>
   <v type="logical" >  T  T  T </v>
   <v type="logical" >  T  T  T </v>
   <v type="logical" >  T  T  T </v>
   <v type="logical" >  T  T  T </v>
  </varray>
  <nose>
   <v>      -3.00000000       0.00000000       0.00010000       0.00010000 </v>
  </nose>
 </structure>
</modeling>
