  55  55   0   0
  0.1454545E+03  0.2000000E-08  0.2000000E-08  0.2000000E-08  0.5000000E-15
  1.000000000000000E-004
  CAR 
 c2_oh2_ruthenium_mol                    
      3.16183235    -51.77649896  301     -7.18488672      1.00000000
    -51.776  0.0000E+00  0.0000E+00  0.0000E+00  0.0000E+00
    -51.593  0.0000E+00  0.0000E+00  0.0000E+00  0.0000E+00
    -51.410  0.0000E+00  0.0000E+00  0.0000E+00  0.0000E+00
    -51.227  0.0000E+00  0.0000E+00  0.0000E+00  0.0000E+00
    -51.044  0.0000E+00  0.0000E+00  0.0000E+00  0.0000E+00
    -50.861  0.0000E+00  0.0000E+00  0.0000E+00  0.0000E+00
    -50.678  0.0000E+00  0.0000E+00  0.0000E+00  0.0000E+00
    -50.495  0.0000E+00  0.0000E+00  0.0000E+00  0.0000E+00
    -50.311  0.0000E+00  0.0000E+00  0.0000E+00  0.0000E+00
    -50.128  0.0000E+00  0.0000E+00  0.0000E+00  0.0000E+00
    -49.945  0.0000E+00  0.0000E+00  0.0000E+00  0.0000E+00
    -49.762  0.0000E+00  0.0000E+00  0.0000E+00  0.0000E+00
    -49.579  0.0000E+00  0.0000E+00  0.0000E+00  0.0000E+00
    -49.396  0.0000E+00  0.0000E+00  0.0000E+00  0.0000E+00
    -49.213  0.1092E+02  0.1092E+02  0.2000E+01  0.2000E+01
    -49.030  0.1092E+02  0.1092E+02  0.4000E+01  0.4000E+01
    -48.846  0.8801E+01  0.8801E+01  0.5612E+01  0.5612E+01
    -48.663  0.0000E+00  0.0000E+00  0.6000E+01  0.6000E+01
    -48.480  0.0000E+00  0.0000E+00  0.6000E+01  0.6000E+01
    -48.297  0.0000E+00  0.0000E+00  0.6000E+01  0.6000E+01
    -48.114  0.0000E+00  0.0000E+00  0.6000E+01  0.6000E+01
    -47.931  0.0000E+00  0.0000E+00  0.6000E+01  0.6000E+01
    -47.748  0.0000E+00  0.0000E+00  0.6000E+01  0.6000E+01
    -47.565  0.0000E+00  0.0000E+00  0.6000E+01  0.6000E+01
    -47.381  0.0000E+00  0.0000E+00  0.6000E+01  0.6000E+01
    -47.198  0.0000E+00  0.0000E+00  0.6000E+01  0.6000E+01
    -47.015  0.0000E+00  0.0000E+00  0.6000E+01  0.6000E+01
    -46.832  0.0000E+00  0.0000E+00  0.6000E+01  0.6000E+01
    -46.649  0.0000E+00  0.0000E+00  0.6000E+01  0.6000E+01
    -46.466  0.0000E+00  0.0000E+00  0.6000E+01  0.6000E+01
    -46.283  0.0000E+00  0.0000E+00  0.6000E+01  0.6000E+01
    -46.100  0.0000E+00  0.0000E+00  0.6000E+01  0.6000E+01
    -45.916  0.0000E+00  0.0000E+00  0.6000E+01  0.6000E+01
    -45.733  0.0000E+00  0.0000E+00  0.6000E+01  0.6000E+01
    -45.550  0.0000E+00  0.0000E+00  0.6000E+01  0.6000E+01
    -45.367  0.0000E+00  0.0000E+00  0.6000E+01  0.6000E+01
    -45.184  0.0000E+00  0.0000E+00  0.6000E+01  0.6000E+01
    -45.001  0.0000E+00  0.0000E+00  0.6000E+01  0.6000E+01
    -44.818  0.0000E+00  0.0000E+00  0.6000E+01  0.6000E+01
    -44.635  0.0000E+00  0.0000E+00  0.6000E+01  0.6000E+01
    -44.451  0.0000E+00  0.0000E+00  0.6000E+01  0.6000E+01
    -44.268  0.0000E+00  0.0000E+00  0.6000E+01  0.6000E+01
    -44.085  0.0000E+00  0.0000E+00  0.6000E+01  0.6000E+01
    -43.902  0.0000E+00  0.0000E+00  0.6000E+01  0.6000E+01
    -43.719  0.0000E+00  0.0000E+00  0.6000E+01  0.6000E+01
    -43.536  0.0000E+00  0.0000E+00  0.6000E+01  0.6000E+01
    -43.353  0.0000E+00  0.0000E+00  0.6000E+01  0.6000E+01
    -43.169  0.0000E+00  0.0000E+00  0.6000E+01  0.6000E+01
    -42.986  0.0000E+00  0.0000E+00  0.6000E+01  0.6000E+01
    -42.803  0.0000E+00  0.0000E+00  0.6000E+01  0.6000E+01
    -42.620  0.0000E+00  0.0000E+00  0.6000E+01  0.6000E+01
    -42.437  0.0000E+00  0.0000E+00  0.6000E+01  0.6000E+01
    -42.254  0.0000E+00  0.0000E+00  0.6000E+01  0.6000E+01
    -42.071  0.0000E+00  0.0000E+00  0.6000E+01  0.6000E+01
    -41.888  0.0000E+00  0.0000E+00  0.6000E+01  0.6000E+01
    -41.704  0.0000E+00  0.0000E+00  0.6000E+01  0.6000E+01
    -41.521  0.0000E+00  0.0000E+00  0.6000E+01  0.6000E+01
    -41.338  0.0000E+00  0.0000E+00  0.6000E+01  0.6000E+01
    -41.155  0.0000E+00  0.0000E+00  0.6000E+01  0.6000E+01
    -40.972  0.0000E+00  0.0000E+00  0.6000E+01  0.6000E+01
    -40.789  0.0000E+00  0.0000E+00  0.6000E+01  0.6000E+01
    -40.606  0.0000E+00  0.0000E+00  0.6000E+01  0.6000E+01
    -40.423  0.0000E+00  0.0000E+00  0.6000E+01  0.6000E+01
    -40.239  0.0000E+00  0.0000E+00  0.6000E+01  0.6000E+01
    -40.056  0.0000E+00  0.0000E+00  0.6000E+01  0.6000E+01
    -39.873  0.0000E+00  0.0000E+00  0.6000E+01  0.6000E+01
    -39.690  0.0000E+00  0.0000E+00  0.6000E+01  0.6000E+01
    -39.507  0.0000E+00  0.0000E+00  0.6000E+01  0.6000E+01
    -39.324  0.0000E+00  0.0000E+00  0.6000E+01  0.6000E+01
    -39.141  0.0000E+00  0.0000E+00  0.6000E+01  0.6000E+01
    -38.958  0.0000E+00  0.0000E+00  0.6000E+01  0.6000E+01
    -38.774  0.0000E+00  0.0000E+00  0.6000E+01  0.6000E+01
    -38.591  0.0000E+00  0.0000E+00  0.6000E+01  0.6000E+01
    -38.408  0.0000E+00  0.0000E+00  0.6000E+01  0.6000E+01
    -38.225  0.0000E+00  0.0000E+00  0.6000E+01  0.6000E+01
    -38.042  0.0000E+00  0.0000E+00  0.6000E+01  0.6000E+01
    -37.859  0.0000E+00  0.0000E+00  0.6000E+01  0.6000E+01
    -37.676  0.0000E+00  0.0000E+00  0.6000E+01  0.6000E+01
    -37.493  0.0000E+00  0.0000E+00  0.6000E+01  0.6000E+01
    -37.309  0.0000E+00  0.0000E+00  0.6000E+01  0.6000E+01
    -37.126  0.0000E+00  0.0000E+00  0.6000E+01  0.6000E+01
    -36.943  0.0000E+00  0.0000E+00  0.6000E+01  0.6000E+01
    -36.760  0.0000E+00  0.0000E+00  0.6000E+01  0.6000E+01
    -36.577  0.0000E+00  0.0000E+00  0.6000E+01  0.6000E+01
    -36.394  0.0000E+00  0.0000E+00  0.6000E+01  0.6000E+01
    -36.211  0.0000E+00  0.0000E+00  0.6000E+01  0.6000E+01
    -36.028  0.0000E+00  0.0000E+00  0.6000E+01  0.6000E+01
    -35.844  0.0000E+00  0.0000E+00  0.6000E+01  0.6000E+01
    -35.661  0.0000E+00  0.0000E+00  0.6000E+01  0.6000E+01
    -35.478  0.0000E+00  0.0000E+00  0.6000E+01  0.6000E+01
    -35.295  0.0000E+00  0.0000E+00  0.6000E+01  0.6000E+01
    -35.112  0.0000E+00  0.0000E+00  0.6000E+01  0.6000E+01
    -34.929  0.0000E+00  0.0000E+00  0.6000E+01  0.6000E+01
    -34.746  0.0000E+00  0.0000E+00  0.6000E+01  0.6000E+01
    -34.562  0.0000E+00  0.0000E+00  0.6000E+01  0.6000E+01
    -34.379  0.0000E+00  0.0000E+00  0.6000E+01  0.6000E+01
    -34.196  0.0000E+00  0.0000E+00  0.6000E+01  0.6000E+01
    -34.013  0.0000E+00  0.0000E+00  0.6000E+01  0.6000E+01
    -33.830  0.0000E+00  0.0000E+00  0.6000E+01  0.6000E+01
    -33.647  0.0000E+00  0.0000E+00  0.6000E+01  0.6000E+01
    -33.464  0.0000E+00  0.0000E+00  0.6000E+01  0.6000E+01
    -33.281  0.0000E+00  0.0000E+00  0.6000E+01  0.6000E+01
    -33.097  0.0000E+00  0.0000E+00  0.6000E+01  0.6000E+01
    -32.914  0.0000E+00  0.0000E+00  0.6000E+01  0.6000E+01
    -32.731  0.0000E+00  0.0000E+00  0.6000E+01  0.6000E+01
    -32.548  0.0000E+00  0.0000E+00  0.6000E+01  0.6000E+01
    -32.365  0.0000E+00  0.0000E+00  0.6000E+01  0.6000E+01
    -32.182  0.0000E+00  0.0000E+00  0.6000E+01  0.6000E+01
    -31.999  0.0000E+00  0.0000E+00  0.6000E+01  0.6000E+01
    -31.816  0.0000E+00  0.0000E+00  0.6000E+01  0.6000E+01
    -31.632  0.0000E+00  0.0000E+00  0.6000E+01  0.6000E+01
    -31.449  0.0000E+00  0.0000E+00  0.6000E+01  0.6000E+01
    -31.266  0.0000E+00  0.0000E+00  0.6000E+01  0.6000E+01
    -31.083  0.0000E+00  0.0000E+00  0.6000E+01  0.6000E+01
    -30.900  0.0000E+00  0.0000E+00  0.6000E+01  0.6000E+01
    -30.717  0.0000E+00  0.0000E+00  0.6000E+01  0.6000E+01
    -30.534  0.0000E+00  0.0000E+00  0.6000E+01  0.6000E+01
    -30.351  0.0000E+00  0.0000E+00  0.6000E+01  0.6000E+01
    -30.167  0.0000E+00  0.0000E+00  0.6000E+01  0.6000E+01
    -29.984  0.0000E+00  0.0000E+00  0.6000E+01  0.6000E+01
    -29.801  0.0000E+00  0.0000E+00  0.6000E+01  0.6000E+01
    -29.618  0.0000E+00  0.0000E+00  0.6000E+01  0.6000E+01
    -29.435  0.0000E+00  0.0000E+00  0.6000E+01  0.6000E+01
    -29.252  0.2662E-03  0.2662E-03  0.6000E+01  0.6000E+01
    -29.069  0.0000E+00  0.0000E+00  0.8000E+01  0.8000E+01
    -28.886  0.0000E+00  0.0000E+00  0.8000E+01  0.8000E+01
    -28.702  0.0000E+00  0.0000E+00  0.8000E+01  0.8000E+01
    -28.519  0.0000E+00  0.0000E+00  0.8000E+01  0.8000E+01
    -28.336  0.0000E+00  0.0000E+00  0.8000E+01  0.8000E+01
    -28.153  0.0000E+00  0.0000E+00  0.8000E+01  0.8000E+01
    -27.970  0.0000E+00  0.0000E+00  0.1000E+02  0.1000E+02
    -27.787  0.0000E+00  0.0000E+00  0.1000E+02  0.1000E+02
    -27.604  0.0000E+00  0.0000E+00  0.1000E+02  0.1000E+02
    -27.421  0.0000E+00  0.0000E+00  0.1000E+02  0.1000E+02
    -27.237  0.0000E+00  0.0000E+00  0.1000E+02  0.1000E+02
    -27.054  0.0000E+00  0.0000E+00  0.1000E+02  0.1000E+02
    -26.871  0.1092E+02  0.1092E+02  0.1200E+02  0.1200E+02
    -26.688  0.1092E+02  0.1092E+02  0.1400E+02  0.1400E+02
    -26.505  0.0000E+00  0.0000E+00  0.1400E+02  0.1400E+02
    -26.322  0.0000E+00  0.0000E+00  0.1400E+02  0.1400E+02
    -26.139  0.1092E+02  0.1092E+02  0.1800E+02  0.1800E+02
    -25.955  0.0000E+00  0.0000E+00  0.1800E+02  0.1800E+02
    -25.772  0.0000E+00  0.0000E+00  0.1800E+02  0.1800E+02
    -25.589  0.0000E+00  0.0000E+00  0.1800E+02  0.1800E+02
    -25.406  0.0000E+00  0.0000E+00  0.1800E+02  0.1800E+02
    -25.223  0.0000E+00  0.0000E+00  0.1800E+02  0.1800E+02
    -25.040  0.0000E+00  0.0000E+00  0.1800E+02  0.1800E+02
    -24.857  0.0000E+00  0.0000E+00  0.1800E+02  0.1800E+02
    -24.674  0.0000E+00  0.0000E+00  0.1800E+02  0.1800E+02
    -24.490  0.0000E+00  0.0000E+00  0.1800E+02  0.1800E+02
    -24.307  0.0000E+00  0.0000E+00  0.1800E+02  0.1800E+02
    -24.124  0.0000E+00  0.0000E+00  0.1800E+02  0.1800E+02
    -23.941  0.0000E+00  0.0000E+00  0.1800E+02  0.1800E+02
    -23.758  0.0000E+00  0.0000E+00  0.1800E+02  0.1800E+02
    -23.575  0.1072E+02  0.1072E+02  0.1996E+02  0.1996E+02
    -23.392  0.0000E+00  0.0000E+00  0.2000E+02  0.2000E+02
    -23.209  0.1092E+02  0.1092E+02  0.2200E+02  0.2200E+02
    -23.025  0.0000E+00  0.0000E+00  0.2200E+02  0.2200E+02
    -22.842  0.0000E+00  0.0000E+00  0.2200E+02  0.2200E+02
    -22.659  0.1930E-07  0.1930E-07  0.2200E+02  0.2200E+02
    -22.476  0.1092E+02  0.1092E+02  0.2600E+02  0.2600E+02
    -22.293  0.5292E-01  0.5292E-01  0.2801E+02  0.2801E+02
    -22.110  0.5988E+00  0.5988E+00  0.3011E+02  0.3011E+02
    -21.927  0.0000E+00  0.0000E+00  0.3200E+02  0.3200E+02
    -21.744  0.0000E+00  0.0000E+00  0.3200E+02  0.3200E+02
    -21.560  0.7795E-04  0.7795E-04  0.3200E+02  0.3200E+02
    -21.377  0.0000E+00  0.0000E+00  0.3400E+02  0.3400E+02
    -21.194  0.1308E+00  0.1308E+00  0.3402E+02  0.3402E+02
    -21.011  0.0000E+00  0.0000E+00  0.3600E+02  0.3600E+02
    -20.828  0.1092E+02  0.1092E+02  0.3800E+02  0.3800E+02
    -20.645  0.0000E+00  0.0000E+00  0.3800E+02  0.3800E+02
    -20.462  0.0000E+00  0.0000E+00  0.3800E+02  0.3800E+02
    -20.279  0.0000E+00  0.0000E+00  0.3800E+02  0.3800E+02
    -20.095  0.0000E+00  0.0000E+00  0.3800E+02  0.3800E+02
    -19.912  0.0000E+00  0.0000E+00  0.3800E+02  0.3800E+02
    -19.729  0.0000E+00  0.0000E+00  0.3800E+02  0.3800E+02
    -19.546  0.1092E+02  0.1092E+02  0.4000E+02  0.4000E+02
    -19.363  0.1948E+01  0.1948E+01  0.4036E+02  0.4036E+02
    -19.180  0.0000E+00  0.0000E+00  0.4200E+02  0.4200E+02
    -18.997  0.0000E+00  0.0000E+00  0.4200E+02  0.4200E+02
    -18.814  0.3615E-04  0.3615E-04  0.4200E+02  0.4200E+02
    -18.630  0.0000E+00  0.0000E+00  0.4400E+02  0.4400E+02
    -18.447  0.1092E+02  0.1092E+02  0.4600E+02  0.4600E+02
    -18.264  0.4145E-03  0.4145E-03  0.4600E+02  0.4600E+02
    -18.081  0.9909E-07  0.9909E-07  0.4800E+02  0.4800E+02
    -17.898  0.6410E+01  0.6410E+01  0.5117E+02  0.5117E+02
    -17.715  0.3498E-01  0.3498E-01  0.5201E+02  0.5201E+02
    -17.532  0.0000E+00  0.0000E+00  0.5600E+02  0.5600E+02
    -17.348  0.1088E+02  0.1088E+02  0.5799E+02  0.5799E+02
    -17.165  0.0000E+00  0.0000E+00  0.5800E+02  0.5800E+02
    -16.982  0.0000E+00  0.0000E+00  0.5800E+02  0.5800E+02
    -16.799  0.0000E+00  0.0000E+00  0.6000E+02  0.6000E+02
    -16.616  0.1092E+02  0.1092E+02  0.6200E+02  0.6200E+02
    -16.433  0.0000E+00  0.0000E+00  0.6200E+02  0.6200E+02
    -16.250  0.0000E+00  0.0000E+00  0.6200E+02  0.6200E+02
    -16.067  0.0000E+00  0.0000E+00  0.6200E+02  0.6200E+02
    -15.883  0.1092E+02  0.1092E+02  0.6400E+02  0.6400E+02
    -15.700  0.3114E-01  0.3114E-01  0.6401E+02  0.6401E+02
    -15.517  0.0000E+00  0.0000E+00  0.6600E+02  0.6600E+02
    -15.334  0.1090E+02  0.1090E+02  0.6800E+02  0.6800E+02
    -15.151  0.1092E+02  0.1092E+02  0.7000E+02  0.7000E+02
    -14.968  0.0000E+00  0.0000E+00  0.7000E+02  0.7000E+02
    -14.785  0.1092E+02  0.1092E+02  0.7200E+02  0.7200E+02
    -14.602  0.0000E+00  0.0000E+00  0.7600E+02  0.7600E+02
    -14.418  0.1092E+02  0.1092E+02  0.7800E+02  0.7800E+02
    -14.235  0.1092E+02  0.1092E+02  0.8000E+02  0.8000E+02
    -14.052  0.1092E+02  0.1092E+02  0.8400E+02  0.8400E+02
    -13.869  0.6197E+00  0.6197E+00  0.8811E+02  0.8811E+02
    -13.686  0.0000E+00  0.0000E+00  0.9000E+02  0.9000E+02
    -13.503  0.6319E-10  0.6319E-10  0.9000E+02  0.9000E+02
    -13.320  0.1092E+02  0.1092E+02  0.9600E+02  0.9600E+02
    -13.137  0.1092E+02  0.1092E+02  0.1000E+03  0.1000E+03
    -12.953  0.1092E+02  0.1092E+02  0.1040E+03  0.1040E+03
    -12.770  0.1131E+02  0.1131E+02  0.1061E+03  0.1061E+03
    -12.587  0.0000E+00  0.0000E+00  0.1080E+03  0.1080E+03
    -12.404  0.1092E+02  0.1092E+02  0.1120E+03  0.1120E+03
    -12.221  0.7391E+01  0.7391E+01  0.1154E+03  0.1154E+03
    -12.038  0.1092E+02  0.1092E+02  0.1180E+03  0.1180E+03
    -11.855  0.0000E+00  0.0000E+00  0.1200E+03  0.1200E+03
    -11.672  0.1092E+02  0.1092E+02  0.1220E+03  0.1220E+03
    -11.488  0.8386E+01  0.8386E+01  0.1235E+03  0.1235E+03
    -11.305  0.1091E+02  0.1091E+02  0.1260E+03  0.1260E+03
    -11.122  0.1092E+02  0.1092E+02  0.1300E+03  0.1300E+03
    -10.939  0.2266E-08  0.2266E-08  0.1300E+03  0.1300E+03
    -10.756  0.1092E+02  0.1092E+02  0.1340E+03  0.1340E+03
    -10.573  0.2184E+02  0.2184E+02  0.1400E+03  0.1400E+03
    -10.390  0.0000E+00  0.0000E+00  0.1400E+03  0.1400E+03
    -10.206  0.0000E+00  0.0000E+00  0.1400E+03  0.1400E+03
    -10.023  0.2183E+02  0.2183E+02  0.1440E+03  0.1440E+03
     -9.840  0.1141E+02  0.1141E+02  0.1461E+03  0.1461E+03
     -9.657  0.1092E+02  0.1092E+02  0.1520E+03  0.1520E+03
     -9.474  0.9815E+01  0.9815E+01  0.1538E+03  0.1538E+03
     -9.291  0.0000E+00  0.0000E+00  0.1540E+03  0.1540E+03
     -9.108  0.0000E+00  0.0000E+00  0.1540E+03  0.1540E+03
     -8.925  0.0000E+00  0.0000E+00  0.1560E+03  0.1560E+03
     -8.741  0.1092E+02  0.1092E+02  0.1580E+03  0.1580E+03
     -8.558  0.0000E+00  0.0000E+00  0.1580E+03  0.1580E+03
     -8.375  0.0000E+00  0.0000E+00  0.1600E+03  0.1600E+03
     -8.192  0.0000E+00  0.0000E+00  0.1600E+03  0.1600E+03
     -8.009  0.0000E+00  0.0000E+00  0.1600E+03  0.1600E+03
     -7.826  0.0000E+00  0.0000E+00  0.1600E+03  0.1600E+03
     -7.643  0.0000E+00  0.0000E+00  0.1600E+03  0.1600E+03
     -7.460  0.3242E-09  0.3242E-09  0.1620E+03  0.1620E+03
     -7.276  0.1162E+00  0.1162E+00  0.1640E+03  0.1640E+03
     -7.093  0.0000E+00  0.0000E+00  0.1660E+03  0.1660E+03
     -6.910  0.0000E+00  0.0000E+00  0.1660E+03  0.1660E+03
     -6.727  0.0000E+00  0.0000E+00  0.1660E+03  0.1660E+03
     -6.544  0.0000E+00  0.0000E+00  0.1660E+03  0.1660E+03
     -6.361  0.0000E+00  0.0000E+00  0.1660E+03  0.1660E+03
     -6.178  0.0000E+00  0.0000E+00  0.1660E+03  0.1660E+03
     -5.995  0.0000E+00  0.0000E+00  0.1660E+03  0.1660E+03
     -5.811  0.1289E+01  0.1289E+01  0.1662E+03  0.1662E+03
     -5.628  0.0000E+00  0.0000E+00  0.1680E+03  0.1680E+03
     -5.445  0.0000E+00  0.0000E+00  0.1680E+03  0.1680E+03
     -5.262  0.0000E+00  0.0000E+00  0.1680E+03  0.1680E+03
     -5.079  0.9937E+01  0.9937E+01  0.1698E+03  0.1698E+03
     -4.896  0.1567E-03  0.1567E-03  0.1700E+03  0.1700E+03
     -4.713  0.0000E+00  0.0000E+00  0.1720E+03  0.1720E+03
     -4.530  0.0000E+00  0.0000E+00  0.1720E+03  0.1720E+03
     -4.346  0.1092E+02  0.1092E+02  0.1740E+03  0.1740E+03
     -4.163  0.2184E+02  0.2184E+02  0.1780E+03  0.1780E+03
     -3.980  0.2184E+02  0.2184E+02  0.1820E+03  0.1820E+03
     -3.797  0.0000E+00  0.0000E+00  0.1820E+03  0.1820E+03
     -3.614  0.8166E+00  0.8166E+00  0.1821E+03  0.1821E+03
     -3.431  0.1092E+02  0.1092E+02  0.1860E+03  0.1860E+03
     -3.248  0.3378E-06  0.3379E-06  0.1860E+03  0.1860E+03
     -3.065  0.0000E+00  0.0000E+00  0.1880E+03  0.1880E+03
     -2.881  0.2438E+00  0.2439E+00  0.1880E+03  0.1880E+03
     -2.698  0.0000E+00  0.0000E+00  0.1920E+03  0.1920E+03
     -2.515  0.0000E+00  0.0000E+00  0.1920E+03  0.1920E+03
     -2.332  0.0000E+00  0.0000E+00  0.1920E+03  0.1920E+03
     -2.149  0.0000E+00  0.0000E+00  0.1920E+03  0.1920E+03
     -1.966  0.2997E-01  0.2997E-01  0.1920E+03  0.1920E+03
     -1.783  0.0000E+00  0.0000E+00  0.1940E+03  0.1940E+03
     -1.599  0.1274E-10  0.1275E-10  0.1960E+03  0.1960E+03
     -1.416  0.0000E+00  0.0000E+00  0.1980E+03  0.1980E+03
     -1.233  0.1092E+02  0.1092E+02  0.2020E+03  0.2020E+03
     -1.050  0.9366E+00  0.9368E+00  0.2062E+03  0.2062E+03
     -0.867  0.1088E+02  0.1088E+02  0.2100E+03  0.2100E+03
     -0.684  0.1126E+02  0.1126E+02  0.2121E+03  0.2121E+03
     -0.501  0.2184E+02  0.2184E+02  0.2200E+03  0.2200E+03
     -0.318  0.1092E+02  0.1092E+02  0.2240E+03  0.2240E+03
     -0.134  0.8247E+01  0.8249E+01  0.2275E+03  0.2275E+03
      0.049  0.1092E+02  0.1092E+02  0.2340E+03  0.2340E+03
      0.232  0.1092E+02  0.1092E+02  0.2380E+03  0.2380E+03
      0.415  0.1295E+02  0.1295E+02  0.2444E+03  0.2444E+03
      0.598  0.1565E+02  0.1564E+02  0.2509E+03  0.2509E+03
      0.781  0.0000E+00  0.0000E+00  0.2560E+03  0.2560E+03
      0.964  0.0000E+00  0.0000E+00  0.2560E+03  0.2560E+03
      1.147  0.0000E+00  0.0000E+00  0.2560E+03  0.2560E+03
      1.331  0.0000E+00  0.0000E+00  0.2560E+03  0.2560E+03
      1.514  0.0000E+00  0.0000E+00  0.2560E+03  0.2560E+03
      1.697  0.0000E+00  0.0000E+00  0.2560E+03  0.2560E+03
      1.880  0.0000E+00  0.0000E+00  0.2560E+03  0.2560E+03
      2.063  0.0000E+00  0.0000E+00  0.2560E+03  0.2560E+03
      2.246  0.0000E+00  0.0000E+00  0.2560E+03  0.2560E+03
      2.429  0.0000E+00  0.0000E+00  0.2560E+03  0.2560E+03
      2.612  0.0000E+00  0.0000E+00  0.2560E+03  0.2560E+03
      2.796  0.0000E+00  0.0000E+00  0.2560E+03  0.2560E+03
      2.979  0.0000E+00  0.0000E+00  0.2560E+03  0.2560E+03
      3.162  0.0000E+00  0.0000E+00  0.2560E+03  0.2560E+03
