   55   55    1    2
  0.1454545E+03  0.2000000E-08  0.2000000E-08  0.2000000E-08  0.5000000E-15
  1.000000000000000E-004
  CAR 
 c2_oh2_ruthenium_mol                    
    166      1    128
 
  0.0000000E+00  0.0000000E+00  0.0000000E+00  0.1000000E+01
    1      -49.279302    -49.279302
    2      -49.109140    -49.109140
    3      -48.852555    -48.852555
    4      -29.223064    -29.223064
    5      -28.090363    -28.090363
    6      -26.908875    -26.908875
    7      -26.728785    -26.728785
    8      -26.237671    -26.237671
    9      -26.207027    -26.207027
   10      -23.589629    -23.589630
   11      -23.232440    -23.232440
   12      -22.617431    -22.617431
   13      -22.499299    -22.499299
   14      -22.376500    -22.376500
   15      -22.274637    -22.274637
   16      -22.098488    -22.098488
   17      -21.529731    -21.529731
   18      -21.178196    -21.178196
   19      -20.858571    -20.858571
   20      -19.616750    -19.616750
   21      -19.356366    -19.356366
   22      -18.781641    -18.781641
   23      -18.517426    -18.517426
   24      -18.236137    -18.236137
   25      -18.041187    -18.041187
   26      -17.899415    -17.899415
   27      -17.695456    -17.695456
   28      -17.661292    -17.661292
   29      -17.367606    -17.367606
   30      -16.894767    -16.894767
   31      -16.674955    -16.674955
   32      -15.914067    -15.914067
   33      -15.680781    -15.680781
   34      -15.354280    -15.354280
   35      -15.210110    -15.210110
   36      -14.826471    -14.826471
   37      -14.752532    -14.752532
   38      -14.698931    -14.698931
   39      -14.450669    -14.450669
   40      -14.314640    -14.314640
   41      -14.177807    -14.177807
   42      -14.104549    -14.104549
   43      -14.020365    -14.020365
   44      -13.964086    -13.964086
   45      -13.857859    -13.857859
   46      -13.454814    -13.454814
   47      -13.414756    -13.414756
   48      -13.383106    -13.383106
   49      -13.289850    -13.289850
   50      -13.203186    -13.203186
   51      -13.055233    -13.055233
   52      -13.018178    -13.018178
   53      -12.816217    -12.816217
   54      -12.757534    -12.757534
   55      -12.511373    -12.511373
   56      -12.470832    -12.470832
   57      -12.356791    -12.356791
   58      -12.224143    -12.224143
   59      -12.106298    -12.106298
   60      -11.991534    -11.991534
   61      -11.709926    -11.709926
   62      -11.493563    -11.493563
   63      -11.326310    -11.326310
   64      -11.228494    -11.228494
   65      -11.154968    -11.154968
   66      -10.894824    -10.894824
   67      -10.824287    -10.824287
   68      -10.717362    -10.717362
   69      -10.634206    -10.634206
   70      -10.598113    -10.598113
   71      -10.077104    -10.077104
   72      -10.044844    -10.044844
   73       -9.899937     -9.899937
   74       -9.828237     -9.828237
   75       -9.786746     -9.786746
   76       -9.694816     -9.694816
   77       -9.482992     -9.482992
   78       -9.027850     -9.027850
   79       -8.796835     -8.796835
   80       -8.457715     -8.457715
   81       -7.581826     -7.581826
   82       -7.413296     -7.413296
   83       -7.260166     -7.260166
   84       -5.803049     -5.803049
   85       -5.088393     -5.088393
   86       -4.866207     -4.866207
   87       -4.391916     -4.391916
   88       -4.233651     -4.233651
   89       -4.193801     -4.193801
   90       -4.057965     -4.057965
   91       -4.039835     -4.039835
   92       -3.603705     -3.603705
   93       -3.456936     -3.456936
   94       -3.209362     -3.209362
   95       -2.867186     -2.867186
   96       -2.801100     -2.801100
   97       -1.946109     -1.946110
   98       -1.698673     -1.698674
   99       -1.549901     -1.549902
  100       -1.320810     -1.320811
  101       -1.260168     -1.260169
  102       -1.205562     -1.205563
  103       -1.138907     -1.138909
  104       -1.040438     -1.040439
  105       -0.886025     -0.886027
  106       -0.753037     -0.753040
  107       -0.670686     -0.670687
  108       -0.627606     -0.627606
  109       -0.566212     -0.566214
  110       -0.537211     -0.537212
  111       -0.419600     -0.419603
  112       -0.362016     -0.362018
  113       -0.231149     -0.231150
  114       -0.139352     -0.139356
  115       -0.070294     -0.070294
  116       -0.041701     -0.041703
  117        0.018025      0.018025
  118        0.100954      0.100954
  119        0.166384      0.166382
  120        0.271749      0.271747
  121        0.302702      0.302701
  122        0.376946      0.376944
  123        0.421245      0.421242
  124        0.467980      0.467973
  125        0.526706      0.526705
  126        0.599516      0.599516
  127        0.613380      0.613417
  128        0.664568      0.664635
