       N       E                     dE             d eps       ncg     rms          rms(c)
DAV:   1     0.910478330636E+03    0.91048E+03   -0.58806E+04   768   0.974E+02
DAV:   2    -0.697638538804E+02   -0.98024E+03   -0.97375E+03  1024   0.160E+02
DAV:   3    -0.390533700410E+03   -0.32077E+03   -0.32019E+03   768   0.852E+01
DAV:   4    -0.410611864831E+03   -0.20078E+02   -0.20043E+02   768   0.280E+01
DAV:   5    -0.410853785840E+03   -0.24192E+00   -0.24164E+00   832   0.346E+00    0.567E+01
DAV:   6    -0.392020434784E+03    0.18833E+02   -0.31304E+02   640   0.217E+01    0.379E+01
DAV:   7    -0.382045615671E+03    0.99748E+01   -0.21385E+01   768   0.191E+01    0.231E+01
DAV:   8    -0.378127036683E+03    0.39186E+01   -0.17136E+01   768   0.914E+00    0.900E+00
DAV:   9    -0.377082253820E+03    0.10448E+01   -0.72719E+00   768   0.491E+00    0.343E+00
DAV:  10    -0.377059680045E+03    0.22574E-01   -0.25299E-01   768   0.126E+00    0.250E+00
DAV:  11    -0.376922189804E+03    0.13749E+00   -0.16070E-01   768   0.935E-01    0.108E+00
DAV:  12    -0.376846912051E+03    0.75278E-01   -0.10916E-01   768   0.705E-01    0.695E-01
DAV:  13    -0.376827534473E+03    0.19378E-01   -0.17219E-02   768   0.362E-01    0.498E-01
DAV:  14    -0.376816457673E+03    0.11077E-01   -0.16007E-02   768   0.317E-01    0.290E-01
DAV:  15    -0.376818374726E+03   -0.19171E-02   -0.50344E-03   768   0.196E-01    0.244E-01
DAV:  16    -0.376825154216E+03   -0.67795E-02   -0.12946E-03   768   0.120E-01    0.187E-01
DAV:  17    -0.376831674001E+03   -0.65198E-02   -0.16023E-03   768   0.118E-01    0.846E-02
DAV:  18    -0.376836952205E+03   -0.52782E-02   -0.78682E-04   768   0.794E-02    0.700E-02
DAV:  19    -0.376840960723E+03   -0.40085E-02   -0.28516E-04   768   0.519E-02    0.448E-02
DAV:  20    -0.376843766481E+03   -0.28058E-02   -0.15875E-04   768   0.352E-02    0.255E-02
DAV:  21    -0.376845620719E+03   -0.18542E-02   -0.61036E-05   768   0.230E-02    0.172E-02
DAV:  22    -0.376846950636E+03   -0.13299E-02   -0.40620E-05   768   0.169E-02    0.100E-02
DAV:  23    -0.376847562714E+03   -0.61208E-03   -0.14444E-05   640   0.904E-03    0.892E-03
DAV:  24    -0.376848033802E+03   -0.47109E-03   -0.10057E-05   640   0.685E-03    0.442E-03
DAV:  25    -0.376848265574E+03   -0.23177E-03   -0.54279E-06   640   0.460E-03    0.238E-03
DAV:  26    -0.376848364482E+03   -0.98908E-04   -0.10330E-06   640   0.221E-03    0.178E-03
DAV:  27    -0.376848488005E+03   -0.12352E-03   -0.22982E-06   640   0.263E-03    0.110E-03
DAV:  28    -0.376848529564E+03   -0.41558E-04   -0.53035E-07   640   0.138E-03    0.668E-04
DAV:  29    -0.376848553797E+03   -0.24233E-04   -0.19776E-07   640   0.944E-04    0.406E-04
DAV:  30    -0.376848568435E+03   -0.14638E-04   -0.84506E-08   640   0.761E-04    0.246E-04
DAV:  31    -0.376848573355E+03   -0.49199E-05    0.67203E-08   640   0.381E-04
   1 F= -.37684857E+03 E0= -.37684857E+03  d E =-.138013E-26  mag=    -0.0000
