 vasp.5.3.5 31Mar14 (build Apr 08 2014 12:00:03) complex                        
  
 VASP binary ID code NSC-NSCPATCH-BUILD02 date 2017.03.15  18:57:23
 running on   64 total cores
 distrk:  each k-point on   64 cores,    1 groups
 distr:  one band on NCORES_PER_BAND=   1 cores,   64 groups


--------------------------------------------------------------------------------------------------------


 INCAR:
 POTCAR:    PAW_PBE C_h 06Feb2004                 
 POTCAR:    PAW_PBE C_h 06Feb2004                 
 POTCAR:    PAW_PBE H 15Jun2001                   
 POTCAR:    PAW_PBE N_h 06Feb2004                 
 POTCAR:    PAW_PBE O_h 06Feb2004                 
 POTCAR:    PAW_PBE Ru_pv 28Jan2005               

 ----------------------------------------------------------------------------- 
|                                                                             |
|           W    W    AA    RRRRR   N    N  II  N    N   GGGG   !!!           |
|           W    W   A  A   R    R  NN   N  II  NN   N  G    G  !!!           |
|           W    W  A    A  R    R  N N  N  II  N N  N  G       !!!           |
|           W WW W  AAAAAA  RRRRR   N  N N  II  N  N N  G  GGG   !            |
|           WW  WW  A    A  R   R   N   NN  II  N   NN  G    G                |
|           W    W  A    A  R    R  N    N  II  N    N   GGGG   !!!           |
|                                                                             |
|      For optimal performance we recommend to set                            |
|        NCORE= 4 - approx SQRT( number of cores)                             |
|      NCORE specifies how many cores store one orbital (NPAR=cpu/NCORE).     |
|      This setting can  greatly improve the performance of VASP for DFT.     |
|      The default, NPAR=number of cores might be grossly inefficient         |
|      on modern multi-core architectures or massively parallel machines.     |
|      Do your own testing !!!!                                               |
|      Unfortunately you need to use the default for GW and RPA calculations. |
|      (for HF NCORE is supported but not extensively tested yet)             |
|                                                                             |
 ----------------------------------------------------------------------------- 

 POTCAR:    PAW_PBE C_h 06Feb2004                 
   VRHFIN =C: s2p2                                                              
   LEXCH  = PE                                                                  
   EATOM  =   147.1560 eV,   10.8157 Ry                                         
                                                                                
   TITEL  = PAW_PBE C_h 06Feb2004                                               
   LULTRA =        F    use ultrasoft PP ?                                      
   IUNSCR =        1    unscreen: 0-lin 1-nonlin 2-no                           
   RPACOR =    0.800    partial core radius                                     
   POMASS =   12.011; ZVAL   =    4.000    mass and valenz                      
   RCORE  =    1.100    outmost cutoff radius                                   
   RWIGS  =    1.630; RWIGS  =    0.863    wigner-seitz radius (au A)           
   ENMAX  =  700.000; ENMIN  =  500.000 eV                                      
   ICORE  =        2    local potential                                         
   LCOR   =        T    correct aug charges                                     
   LPAW   =        T    paw PP                                                  
   EAUG   =  946.768                                                            
   DEXC   =    0.000                                                            
   RMAX   =    1.128    core radius for proj-oper                               
   RAUG   =    1.300    factor for augmentation sphere                          
   RDEP   =    1.162    radius for radial grids                                 
   RDEPT  =    1.088    core radius for aug-charge                              
                                                                                
   Atomic configuration                                                         
    4 entries                                                                   
     n  l   j            E        occ.                                          
     1  0  0.50      -273.3789   2.0000                                         
     2  0  0.50       -13.7508   2.0000                                         
     2  1  0.50        -5.2854   2.0000                                         
     3  2  1.50        -5.4423   0.0000                                         
   Description                                                                  
     l       E           TYP  RCUT    TYP  RCUT                                 
     0    -13.7508458     23  1.100                                             
     0     -8.2022199     23  1.100                                             
     1     -5.2854383     23  1.100                                             
     1      1.1560700     23  1.100                                             
     2     -5.4423304      7  1.100                                             
  local pseudopotential read in
  partial core-charges read in
  partial kinetic energy density read in
  atomic valenz-charges read in
  non local Contribution for L=           0  read in
    real space projection operators read in
  non local Contribution for L=           0  read in
    real space projection operators read in
  non local Contribution for L=           1  read in
    real space projection operators read in
  non local Contribution for L=           1  read in
    real space projection operators read in
    PAW grid and wavefunctions read in
 
   number of l-projection  operators is LMAX  =           4
   number of lm-projection operators is LMMAX =           8
 
 POTCAR:    PAW_PBE C_h 06Feb2004                 
   VRHFIN =C: s2p2                                                              
   LEXCH  = PE                                                                  
   EATOM  =   147.1560 eV,   10.8157 Ry                                         
                                                                                
   TITEL  = PAW_PBE C_h 06Feb2004                                               
   LULTRA =        F    use ultrasoft PP ?                                      
   IUNSCR =        1    unscreen: 0-lin 1-nonlin 2-no                           
   RPACOR =    0.800    partial core radius                                     
   POMASS =   12.011; ZVAL   =    4.000    mass and valenz                      
   RCORE  =    1.100    outmost cutoff radius                                   
   RWIGS  =    1.630; RWIGS  =    0.863    wigner-seitz radius (au A)           
   ENMAX  =  700.000; ENMIN  =  500.000 eV                                      
   ICORE  =        2    local potential                                         
   LCOR   =        T    correct aug charges                                     
   LPAW   =        T    paw PP                                                  
   EAUG   =  946.768                                                            
   DEXC   =    0.000                                                            
   RMAX   =    1.128    core radius for proj-oper                               
   RAUG   =    1.300    factor for augmentation sphere                          
   RDEP   =    1.162    radius for radial grids                                 
   RDEPT  =    1.088    core radius for aug-charge                              
                                                                                
   Atomic configuration                                                         
    4 entries                                                                   
     n  l   j            E        occ.                                          
     1  0  0.50      -273.3789   2.0000                                         
     2  0  0.50       -13.7508   2.0000                                         
     2  1  0.50        -5.2854   2.0000                                         
     3  2  1.50        -5.4423   0.0000                                         
   Description                                                                  
     l       E           TYP  RCUT    TYP  RCUT                                 
     0    -13.7508458     23  1.100                                             
     0     -8.2022199     23  1.100                                             
     1     -5.2854383     23  1.100                                             
     1      1.1560700     23  1.100                                             
     2     -5.4423304      7  1.100                                             
  local pseudopotential read in
  partial core-charges read in
  partial kinetic energy density read in
  atomic valenz-charges read in
  non local Contribution for L=           0  read in
    real space projection operators read in
  non local Contribution for L=           0  read in
    real space projection operators read in
  non local Contribution for L=           1  read in
    real space projection operators read in
  non local Contribution for L=           1  read in
    real space projection operators read in
    PAW grid and wavefunctions read in
 
   number of l-projection  operators is LMAX  =           4
   number of lm-projection operators is LMMAX =           8
 
 POTCAR:    PAW_PBE H 15Jun2001                   
   VRHFIN =H: ultrasoft test                                                    
   LEXCH  = PE                                                                  
   EATOM  =    12.4884 eV,    0.9179 Ry                                         
                                                                                
   TITEL  = PAW_PBE H 15Jun2001                                                 
   LULTRA =        F    use ultrasoft PP ?                                      
   IUNSCR =        0    unscreen: 0-lin 1-nonlin 2-no                           
   RPACOR =    0.000    partial core radius                                     
   POMASS =    1.000; ZVAL   =    1.000    mass and valenz                      
   RCORE  =    1.100    outmost cutoff radius                                   
   RWIGS  =    0.700; RWIGS  =    0.370    wigner-seitz radius (au A)           
   ENMAX  =  250.000; ENMIN  =  200.000 eV                                      
   RCLOC  =    0.701    cutoff for local pot                                    
   LCOR   =        T    correct aug charges                                     
   LPAW   =        T    paw PP                                                  
   EAUG   =  400.000                                                            
   RMAX   =    1.123    core radius for proj-oper                               
   RAUG   =    1.200    factor for augmentation sphere                          
   RDEP   =    1.112    radius for radial grids                                 
   RDEPT  =    0.926    core radius for aug-charge                              
                                                                                
   Atomic configuration                                                         
    2 entries                                                                   
     n  l   j            E        occ.                                          
     1  0  0.50        -6.4927   1.0000                                         
     2  1  0.50        -3.4015   0.0000                                         
   Description                                                                  
     l       E           TYP  RCUT    TYP  RCUT                                 
     0     -6.4927494     23  1.100                                             
     0      6.8029130     23  1.100                                             
     1     -4.0817478     23  1.100                                             
  local pseudopotential read in
  atomic valenz-charges read in
  non local Contribution for L=           0  read in
    real space projection operators read in
  non local Contribution for L=           0  read in
    real space projection operators read in
  non local Contribution for L=           1  read in
    real space projection operators read in
    PAW grid and wavefunctions read in
 
   number of l-projection  operators is LMAX  =           3
   number of lm-projection operators is LMMAX =           5
 
 POTCAR:    PAW_PBE N_h 06Feb2004                 
   VRHFIN =N: s2p3                                                              
   LEXCH  = PE                                                                  
   EATOM  =   264.5486 eV,   19.4438 Ry                                         
                                                                                
   TITEL  = PAW_PBE N_h 06Feb2004                                               
   LULTRA =        F    use ultrasoft PP ?                                      
   IUNSCR =        1    unscreen: 0-lin 1-nonlin 2-no                           
   RPACOR =    0.800    partial core radius                                     
   POMASS =   14.001; ZVAL   =    5.000    mass and valenz                      
   RCORE  =    1.100    outmost cutoff radius                                   
   RWIGS  =    1.480; RWIGS  =    0.783    wigner-seitz radius (au A)           
   ENMAX  =  700.000; ENMIN  =  500.000 eV                                      
   ICORE  =        2    local potential                                         
   LCOR   =        T    correct aug charges                                     
   LPAW   =        T    paw PP                                                  
   EAUG   =  904.640                                                            
   DEXC   =    0.000                                                            
   RMAX   =    1.127    core radius for proj-oper                               
   RAUG   =    1.300    factor for augmentation sphere                          
   RDEP   =    1.115    radius for radial grids                                 
   RDEPT  =    1.106    core radius for aug-charge                              
                                                                                
   Atomic configuration                                                         
    4 entries                                                                   
     n  l   j            E        occ.                                          
     1  0  0.50      -384.7179   2.0000                                         
     2  0  0.50       -18.5828   2.0000                                         
     2  1  0.50        -7.0898   3.0000                                         
     3  2  1.50        -6.8029   0.0000                                         
   Description                                                                  
     l       E           TYP  RCUT    TYP  RCUT                                 
     0    -18.5828117     23  1.100                                             
     0    -15.0750597     23  1.100                                             
     1     -7.0897851     23  1.100                                             
     1     -1.9663412     23  1.100                                             
     2     -6.8029130      7  1.100                                             
  local pseudopotential read in
  partial core-charges read in
  partial kinetic energy density read in
  kinetic energy density of atom read in
  atomic valenz-charges read in
  non local Contribution for L=           0  read in
    real space projection operators read in
  non local Contribution for L=           0  read in
    real space projection operators read in
  non local Contribution for L=           1  read in
    real space projection operators read in
  non local Contribution for L=           1  read in
    real space projection operators read in
    PAW grid and wavefunctions read in
 
   number of l-projection  operators is LMAX  =           4
   number of lm-projection operators is LMMAX =           8
 
 POTCAR:    PAW_PBE O_h 06Feb2004                 
   VRHFIN =O: s2p4                                                              
   LEXCH  = PE                                                                  
   EATOM  =   432.3788 eV,   31.7789 Ry                                         
                                                                                
   TITEL  = PAW_PBE O_h 06Feb2004                                               
   LULTRA =        F    use ultrasoft PP ?                                      
   IUNSCR =        1    unscreen: 0-lin 1-nonlin 2-no                           
   RPACOR =    0.800    partial core radius                                     
   POMASS =   16.000; ZVAL   =    6.000    mass and valenz                      
   RCORE  =    1.100    outmost cutoff radius                                   
   RWIGS  =    1.400; RWIGS  =    0.741    wigner-seitz radius (au A)           
   ENMAX  =  700.000; ENMIN  =  500.000 eV                                      
   ICORE  =        2    local potential                                         
   LCOR   =        T    correct aug charges                                     
   LPAW   =        T    paw PP                                                  
   EAUG   =  888.804                                                            
   DEXC   =    0.000                                                            
   RMAX   =    1.128    core radius for proj-oper                               
   RAUG   =    1.300    factor for augmentation sphere                          
   RDEP   =    1.125    radius for radial grids                                 
   RDEPT  =    1.088    core radius for aug-charge                              
                                                                                
   Atomic configuration                                                         
    4 entries                                                                   
     n  l   j            E        occ.                                          
     1  0  0.50      -514.6923   2.0000                                         
     2  0  0.50       -23.9615   2.0000                                         
     2  1  0.50        -9.0305   4.0000                                         
     3  2  1.50        -9.5241   0.0000                                         
   Description                                                                  
     l       E           TYP  RCUT    TYP  RCUT                                 
     0    -23.9615319     23  1.100                                             
     0    -25.3221145     23  1.100                                             
     1     -9.0304911     23  1.100                                             
     1     -5.4802209     23  1.100                                             
     2     -9.5240782      7  1.100                                             
  local pseudopotential read in
  partial core-charges read in
  partial kinetic energy density read in
  atomic valenz-charges read in
  non local Contribution for L=           0  read in
    real space projection operators read in
  non local Contribution for L=           0  read in
    real space projection operators read in
  non local Contribution for L=           1  read in
    real space projection operators read in
  non local Contribution for L=           1  read in
    real space projection operators read in
    PAW grid and wavefunctions read in
 
   number of l-projection  operators is LMAX  =           4
   number of lm-projection operators is LMMAX =           8
 
 POTCAR:    PAW_PBE Ru_pv 28Jan2005               
   VRHFIN =Ru: 4p5s4d                                                           
   LEXCH  = PE                                                                  
   EATOM  =  1873.4746 eV,  137.6965 Ry                                         
                                                                                
   TITEL  = PAW_PBE Ru_pv 28Jan2005                                             
   LULTRA =        F    use ultrasoft PP ?                                      
   IUNSCR =        1    unscreen: 0-lin 1-nonlin 2-no                           
   RPACOR =    2.170    partial core radius                                     
   POMASS =  101.070; ZVAL   =   14.000    mass and valenz                      
   RCORE  =    2.500    outmost cutoff radius                                   
   RWIGS  =    2.650; RWIGS  =    1.402    wigner-seitz radius (au A)           
   ENMAX  =  240.049; ENMIN  =  180.037 eV                                      
   ICORE  =        3    local potential                                         
   LCOR   =        T    correct aug charges                                     
   LPAW   =        T    paw PP                                                  
   EAUG   =  430.792                                                            
   DEXC   =    0.000                                                            
   RMAX   =    2.546    core radius for proj-oper                               
   RAUG   =    1.300    factor for augmentation sphere                          
   RDEP   =    2.520    radius for radial grids                                 
   RDEPT  =    2.044    core radius for aug-charge                              
                                                                                
   Atomic configuration                                                         
   11 entries                                                                   
     n  l   j            E        occ.                                          
     1  0  0.50    -21933.2692   2.0000                                         
     2  0  0.50     -3153.4096   2.0000                                         
     2  1  1.50     -2823.9548   6.0000                                         
     3  0  0.50      -555.3322   2.0000                                         
     3  1  1.50      -447.1024   6.0000                                         
     3  2  2.50      -273.0570  10.0000                                         
     4  0  0.50       -76.3589   2.0000                                         
     4  1  1.50       -46.4050   6.0000                                         
     4  2  2.50        -5.2029   7.0000                                         
     5  0  0.50        -4.2392   1.0000                                         
     4  3  2.50        -1.3606   0.0000                                         
   Description                                                                  
     l       E           TYP  RCUT    TYP  RCUT                                 
     1    -46.4050190     23  2.100                                             
     1      4.0817478     23  2.100                                             
     2     -5.2028758     23  2.500                                             
     2     -6.5634584     23  2.500                                             
     0     -4.2392192     23  2.500                                             
     0      7.0918828     23  2.500                                             
     3     -5.4423304     23  2.500                                             
  local pseudopotential read in
  partial core-charges read in
  partial kinetic energy density read in
  atomic valenz-charges read in
  non local Contribution for L=           1  read in
    real space projection operators read in
  non local Contribution for L=           1  read in
    real space projection operators read in
  non local Contribution for L=           2  read in
    real space projection operators read in
  non local Contribution for L=           2  read in
    real space projection operators read in
  non local Contribution for L=           0  read in
    real space projection operators read in
  non local Contribution for L=           0  read in
    real space projection operators read in
    PAW grid and wavefunctions read in
 
   number of l-projection  operators is LMAX  =           6
   number of lm-projection operators is LMMAX =          18
 
 Optimization of the real space projectors (new method)

 maximal supplied QI-value         = 34.20
 optimisation between [QCUT,QGAM] = [ 13.34, 27.02] = [ 49.83,204.46] Ry 
 Optimized for a Real-space Cutoff    1.04 Angstroem

   l    n(q)    QCUT    max X(q) W(low)/X(q) W(high)/X(q)  e(spline) 
   0      8    13.340   134.812    0.72E-04    0.21E-03    0.27E-06
   0      8    13.340    80.524    0.70E-04    0.21E-03    0.27E-06
   1      8    13.340    79.026    0.21E-03    0.16E-03    0.33E-06
   1      8    13.340    45.188    0.20E-03    0.15E-03    0.33E-06
 Optimization of the real space projectors (new method)

 maximal supplied QI-value         = 34.20
 optimisation between [QCUT,QGAM] = [ 13.34, 27.02] = [ 49.83,204.46] Ry 
 Optimized for a Real-space Cutoff    1.04 Angstroem

   l    n(q)    QCUT    max X(q) W(low)/X(q) W(high)/X(q)  e(spline) 
   0      8    13.340   134.812    0.72E-04    0.21E-03    0.27E-06
   0      8    13.340    80.524    0.70E-04    0.21E-03    0.27E-06
   1      8    13.340    79.026    0.21E-03    0.16E-03    0.33E-06
   1      8    13.340    45.188    0.20E-03    0.15E-03    0.33E-06
 Optimization of the real space projectors (new method)

 maximal supplied QI-value         = 34.20
 optimisation between [QCUT,QGAM] = [ 13.34, 27.02] = [ 49.83,204.46] Ry 
 Optimized for a Real-space Cutoff    0.98 Angstroem

   l    n(q)    QCUT    max X(q) W(low)/X(q) W(high)/X(q)  e(spline) 
   0      8    13.340    19.460    0.18E-03    0.41E-04    0.19E-06
   0      8    13.340    12.209    0.17E-03    0.45E-04    0.18E-06
   1      7    13.340     4.655    0.16E-03    0.30E-03    0.14E-06
 Optimization of the real space projectors (new method)

 maximal supplied QI-value         = 34.20
 optimisation between [QCUT,QGAM] = [ 13.34, 27.02] = [ 49.83,204.46] Ry 
 Optimized for a Real-space Cutoff    1.04 Angstroem

   l    n(q)    QCUT    max X(q) W(low)/X(q) W(high)/X(q)  e(spline) 
   0      8    13.340   148.539    0.85E-04    0.19E-03    0.21E-06
   0      8    13.340   106.192    0.84E-04    0.19E-03    0.21E-06
   1      8    13.340    73.877    0.18E-03    0.11E-03    0.36E-06
   1      8    13.340    50.042    0.17E-03    0.11E-03    0.36E-06
 Optimization of the real space projectors (new method)

 maximal supplied QI-value         = 34.20
 optimisation between [QCUT,QGAM] = [ 13.34, 27.02] = [ 49.83,204.46] Ry 
 Optimized for a Real-space Cutoff    0.98 Angstroem

   l    n(q)    QCUT    max X(q) W(low)/X(q) W(high)/X(q)  e(spline) 
   0      8    13.340   280.207    0.16E-03    0.35E-03    0.14E-06
   0      8    13.340   228.978    0.16E-03    0.35E-03    0.14E-06
   1      7    13.340    86.127    0.23E-03    0.25E-04    0.30E-06
   1      7    13.340    65.368    0.22E-03    0.27E-04    0.30E-06
 Optimization of the real space projectors (new method)

 maximal supplied QI-value         = 15.12
 optimisation between [QCUT,QGAM] = [ 13.45, 27.06] = [ 50.69,205.06] Ry 
 Optimized for a Real-space Cutoff    1.40 Angstroem

   l    n(q)    QCUT    max X(q) W(low)/X(q) W(high)/X(q)  e(spline) 
   1     11    13.455     3.180    0.18E-04    0.25E-04    0.55E-07
   1     11    13.455     5.351    0.12E-03    0.15E-03    0.24E-06
   2     10    13.455    66.565    0.13E-03    0.46E-04    0.26E-06
   2     10    13.455    63.466    0.13E-03    0.47E-04    0.27E-06
   0     11    13.455    85.644    0.47E-04    0.16E-04    0.33E-06
   0     11    13.455    44.119    0.43E-04    0.15E-04    0.30E-06
  PAW_PBE C_h 06Feb2004                 :
 energy of atom  1       EATOM= -147.1560
 kinetic energy error for atom=    0.0286 (will be added to EATOM!!)
  PAW_PBE C_h 06Feb2004                 :
 energy of atom  2       EATOM= -147.1560
 kinetic energy error for atom=    0.0286 (will be added to EATOM!!)
  PAW_PBE H 15Jun2001                   :
 energy of atom  3       EATOM=  -12.4884
 kinetic energy error for atom=    0.0002 (will be added to EATOM!!)
  PAW_PBE N_h 06Feb2004                 :
 energy of atom  4       EATOM= -264.5486
 kinetic energy error for atom=    0.0847 (will be added to EATOM!!)
  PAW_PBE O_h 06Feb2004                 :
 energy of atom  5       EATOM= -432.3788
 kinetic energy error for atom=    0.1855 (will be added to EATOM!!)
  PAW_PBE Ru_pv 28Jan2005               :
 energy of atom  6       EATOM=-1873.4746
 kinetic energy error for atom=    0.0017 (will be added to EATOM!!)
 
 
 POSCAR: C C H N O Ru                            
  positions in direct lattice
  velocities in cartesian coordinates
 exchange correlation table for  LEXCH =        8
   RHO(1)=    0.500       N(1)  =     2000
   RHO(2)=  100.500       N(2)  =     4000
 


--------------------------------------------------------------------------------------------------------


 ion  position               nearest neighbor table
   1  0.398  0.538  0.604-  52 1.38  22 1.40  17 1.46
   2  0.438  0.566  0.328-  43 1.09   3 1.39   6 1.39
   3  0.456  0.524  0.381-  38 1.09  49 1.36   2 1.39
   4  0.474  0.615  0.450-  34 1.09  49 1.36   5 1.39
   5  0.456  0.660  0.399-  33 1.09   4 1.39   6 1.40
   6  0.438  0.635  0.337-  32 1.09   2 1.39   5 1.40
   7  0.523  0.330  0.675-  26 1.09   8 1.39  16 1.40
   8  0.497  0.372  0.626-  31 1.09  51 1.36   7 1.39
   9  0.602  0.419  0.606-  51 1.37  10 1.40  14 1.47
  10  0.631  0.378  0.654-  28 1.09  16 1.39   9 1.40
  11  0.740  0.529  0.535-  41 1.09  15 1.39  12 1.40
  12  0.701  0.566  0.490-  37 1.09  13 1.39  11 1.40
  13  0.633  0.554  0.487-  47 1.09  53 1.36  12 1.39
  14  0.640  0.469  0.567-  53 1.37  15 1.40   9 1.47
  15  0.708  0.480  0.573-  36 1.09  11 1.39  14 1.40
  16  0.591  0.332  0.689-  27 1.09  10 1.39   7 1.40
  17  0.362  0.489  0.564-  50 1.37  21 1.40   1 1.46
  18  0.408  0.622  0.691-  48 1.09  22 1.39  19 1.40
  19  0.476  0.626  0.677-  44 1.09  20 1.39  18 1.40
  20  0.503  0.586  0.627-  42 1.09  52 1.36  19 1.39
  21  0.293  0.477  0.568-  45 1.09  25 1.39  17 1.40
  22  0.369  0.578  0.654-  30 1.09  18 1.39   1 1.40
  23  0.373  0.406  0.482-  39 1.09  50 1.35  24 1.39
  24  0.305  0.392  0.484-  40 1.09  23 1.39  25 1.40
  25  0.264  0.428  0.528-  46 1.09  21 1.39  24 1.40
  26  0.490  0.295  0.701-   7 1.09
  27  0.613  0.300  0.727-  16 1.09
  28  0.684  0.381  0.665-  10 1.09
  29  0.542  0.362  0.461-  54 0.97
  30  0.316  0.573  0.664-  22 1.09
  31  0.444  0.371  0.614-   8 1.09
  32  0.424  0.668  0.296-   6 1.09
  33  0.456  0.713  0.410-   5 1.09
  34  0.488  0.634  0.499-   4 1.09
  35  0.569  0.418  0.415-  54 0.98
  36  0.738  0.450  0.608-  15 1.09
  37  0.723  0.605  0.459-  12 1.09
  38  0.456  0.470  0.375-   3 1.09
  39  0.406  0.379  0.449-  23 1.09
  40  0.284  0.353  0.452-  24 1.09
  41  0.793  0.537  0.539-  11 1.09
  42  0.556  0.588  0.614-  20 1.09
  43  0.424  0.543  0.280-   2 1.09
  44  0.509  0.660  0.704-  19 1.09
  45  0.263  0.506  0.603-  21 1.09
  46  0.211  0.418  0.531-  25 1.09
  47  0.601  0.582  0.453-  13 1.09
  48  0.385  0.653  0.729-  18 1.09
  49  0.474  0.548  0.441-   4 1.36   3 1.36  55 2.12
  50  0.402  0.453  0.521-  23 1.35  17 1.37  55 2.06
  51  0.535  0.416  0.592-   8 1.36   9 1.37  55 2.06
  52  0.465  0.543  0.590-  20 1.36   1 1.38  55 2.01
  53  0.601  0.507  0.524-  13 1.36  14 1.37  55 2.08
  54  0.531  0.406  0.442-  29 0.97  35 0.98  55 2.24
  55  0.501  0.481  0.519-  52 2.01  50 2.06  51 2.06  53 2.08  49 2.12  54 2.24
 
  LATTYP: Found a simple cubic cell.
 ALAT       =    20.0000000000
  
  Lattice vectors:
  
 A1 = (  20.0000000000,   0.0000000000,   0.0000000000)
 A2 = (   0.0000000000,  20.0000000000,   0.0000000000)
 A3 = (   0.0000000000,   0.0000000000,  20.0000000000)


Analysis of symmetry for initial positions (statically):
=====================================================================
 Subroutine PRICEL returns:
 Original cell was already a primitive cell.
 

 Routine SETGRP: Setting up the symmetry group for a 
 simple cubic supercell.


 Subroutine GETGRP returns: Found  1 space group operations
 (whereof  1 operations were pure point group operations)
 out of a pool of 48 trial point group operations.


The static configuration has the point symmetry C_1 .


Analysis of symmetry for dynamics (positions and initial velocities):
=====================================================================
 Subroutine PRICEL returns:
 Original cell was already a primitive cell.
 

 Routine SETGRP: Setting up the symmetry group for a 
 simple cubic supercell.


 Subroutine GETGRP returns: Found  1 space group operations
 (whereof  1 operations were pure point group operations)
 out of a pool of 48 trial point group operations.


The dynamic configuration has the point symmetry C_1 .


Analysis of constrained symmetry for selective dynamics:
=====================================================================
 Subroutine PRICEL returns:
 Original cell was already a primitive cell.
 

 Routine SETGRP: Setting up the symmetry group for a 
 simple cubic supercell.


 Subroutine GETGRP returns: Found  1 space group operations
 (whereof  1 operations were pure point group operations)
 out of a pool of 48 trial point group operations.


The constrained configuration has the point symmetry C_1 .


Analysis of magnetic symmetry:
=====================================================================
 Subroutine PRICEL returns:
 Original cell was already a primitive cell.
 

 Subroutine MAGSYM returns: Found  1 space group operations
 (whereof  1 operations were pure point group operations)
 out of a pool of  1 trial space group operations
 (whereof  1 operations were pure point group operations)
 and found also     1 'primitive' translations


The magnetic configuration has the point symmetry C_1 .
 
 
 KPOINTS: K-Points                                

Automatic generation of k-mesh.
Space group operators:
 irot       det(A)        alpha          n_x          n_y          n_z        tau_x        tau_y        tau_z
    1     1.000000     0.000000     1.000000     0.000000     0.000000     0.000000     0.000000     0.000000
 
 Subroutine IBZKPT returns following result:
 ===========================================
 
 Found      1 irreducible k-points:
 
 Following reciprocal coordinates:
            Coordinates               Weight
  0.000000  0.000000  0.000000      1.000000
 
 Following cartesian coordinates:
            Coordinates               Weight
  0.000000  0.000000  0.000000      1.000000
 


--------------------------------------------------------------------------------------------------------




 Dimension of arrays:
   k-points           NKPTS =      1   k-points in BZ     NKDIM =      1   number of bands    NBANDS=    128
   number of dos      NEDOS =    301   number of ions     NIONS =     55
   non local maximal  LDIM  =      6   non local SUM 2l+1 LMDIM =     18
   total plane-waves  NPLWV = ******
   max r-space proj   IRMAX =   8473   max aug-charges    IRDMAX= 268848
   dimension x,y,z NGX =   180 NGY =  180 NGZ =  180
   dimension x,y,z NGXF=   360 NGYF=  360 NGZF=  360
   support grid    NGXF=   720 NGYF=  720 NGZF=  720
   ions per type =               1  24  23   5   1   1
 NGX,Y,Z   is equivalent  to a cutoff of  14.96, 14.96, 14.96 a.u.
 NGXF,Y,Z  is equivalent  to a cutoff of  29.92, 29.92, 29.92 a.u.


 I would recommend the setting:
   dimension x,y,z NGX =   173 NGY =  173 NGZ =  173
 SYSTEM =  c2_oh2_ruthenium_mol                    
 POSCAR =  C C H N O Ru                            

 Startparameter for this run:
   NWRITE =      2    write-flag & timer
   PREC   = accura    normal or accurate (medium, high low for compatibility)
   ISTART =      0    job   : 0-new  1-cont  2-samecut
   ICHARG =      2    charge: 1-file 2-atom 10-const
   ISPIN  =      2    spin polarized calculation?
   LNONCOLLINEAR =      F non collinear calculations
   LSORBIT =      F    spin-orbit coupling
   INIWAV =      1    electr: 0-lowe 1-rand  2-diag
   LASPH  =      F    aspherical Exc in radial PAW
   METAGGA=      F    non-selfconsistent MetaGGA calc.

 Electronic Relaxation 1
   ENCUT  =  700.0 eV  51.45 Ry    7.17 a.u.  43.15 43.15 43.15*2*pi/ulx,y,z
   ENINI  =  700.0     initial cutoff
   ENAUG  =  946.8 eV  augmentation charge cutoff
   NELM   =     60;   NELMIN=  2; NELMDL= -5     # of ELM steps 
   EDIFF  = 0.1E-04   stopping-criterion for ELM
   LREAL  =      T    real-space projection
   NLSPLINE    = F    spline interpolate recip. space projectors
   LCOMPAT=      F    compatible to vasp.4.4
   GGA_COMPAT  = T    GGA compatible to vasp.4.4-vasp.4.6
   LMAXPAW     = -100 max onsite density
   LMAXMIX     =    2 max onsite mixed and CHGCAR
   VOSKOWN=      0    Vosko Wilk Nusair interpolation
   ROPT   =   -0.00025  -0.00025  -0.00025  -0.00025
   ROPT   =   -0.00025  -0.00025
 Ionic relaxation
   EDIFFG = -.1E-01   stopping-criterion for IOM
   NSW    =      0    number of steps for IOM
   NBLOCK =      1;   KBLOCK =      1    inner block; outer block 
   IBRION =     -1    ionic relax: 0-MD 1-quasi-New 2-CG
   NFREE  =      0    steps in history (QN), initial steepest desc. (CG)
   ISIF   =      2    stress and relaxation
   IWAVPR =     10    prediction:  0-non 1-charg 2-wave 3-comb
   ISYM   =      2    0-nonsym 1-usesym 2-fastsym
   LCORR  =      T    Harris-Foulkes like correction to forces

   POTIM  = 0.5000    time-step for ionic-motion
   TEIN   =    0.0    initial temperature
   TEBEG  =    0.0;   TEEND  =   0.0 temperature during run
   SMASS  =  -3.00    Nose mass-parameter (am)
   estimated Nose-frequenzy (Omega)   =  0.10E-29 period in steps =****** mass=  -0.914E-26a.u.
   SCALEE = 1.0000    scale energy and forces
   NPACO  =    256;   APACO  = 16.0  distance and # of slots for P.C.
   PSTRESS=    0.0 pullay stress

  Mass of Ions in am
   POMASS =  12.01 12.01  1.00 14.00 16.00101.07
  Ionic Valenz
   ZVAL   =   4.50  4.00  1.00  5.00  6.00 14.00
  Atomic Wigner-Seitz radii
   RWIGS  =  -1.00 -1.00 -1.00 -1.00 -1.00 -1.00
  virtual crystal weights 
   VCA    =   1.00  1.00  1.00  1.00  1.00  1.00
   NELECT =     166.0000    total number of electrons
   NUPDOWN=       0.0000    fix difference up-down

 DOS related values:
   EMIN   =  10.00;   EMAX   =-10.00  energy-range for DOS
   EFERMI =   0.00
   ISMEAR =     0;   SIGMA  =   0.01  broadening in eV -4-tet -1-fermi 0-gaus

 Electronic relaxation 2 (details)
   IALGO  =     38    algorithm
   LDIAG  =      T    sub-space diagonalisation (order eigenvalues)
   LSUBROT=      F    optimize rotation matrix (better conditioning)
   TURBO    =      0    0=normal 1=particle mesh
   IRESTART =      0    0=no restart 2=restart with 2 vectors
   NREBOOT  =      0    no. of reboots
   NMIN     =      0    reboot dimension
   EREF     =   0.00    reference energy to select bands
   IMIX   =      4    mixing-type and parameters
     AMIX     =   0.40;   BMIX     =  2.00
     AMIX_MAG =   1.60;   BMIX_MAG =  2.00
     AMIN     =   0.10
     WC   =   100.;   INIMIX=   1;  MIXPRE=   1;  MAXMIX= -45

 Intra band minimization:
   WEIMIN = 0.0000     energy-eigenvalue tresh-hold
   EBREAK =  0.20E-07  absolut break condition
   DEPER  =   0.30     relativ break condition  

   TIME   =   0.05     timestep for ELM

  volume/ion in A,a.u.               =     145.45       981.58
  Fermi-wavevector in a.u.,A,eV,Ry     =   0.449864  0.850119  2.753510  0.202377
  Thomas-Fermi vector in A             =   1.430192
 
 Write flags
   LWAVE  =      T    write WAVECAR
   LCHARG =      T    write CHGCAR
   LVTOT  =      F    write LOCPOT, total local potential
   LVHAR  =      F    write LOCPOT, Hartree potential only
   LELF   =      F    write electronic localiz. function (ELF)
   LORBIT =      0    0 simple, 1 ext, 2 COOP (PROOUT)


 Dipole corrections
   LMONO  =      F    monopole corrections only (constant potential shift)
   LDIPOL =      F    correct potential (dipole corrections)
   IDIPOL =      0    1-x, 2-y, 3-z, 4-all directions 
   EPSILON=  1.0000000 bulk dielectric constant

 Core level calculations are selected ICORELEVEL =  2
  CLNT =           1       CLN =     1
  CLL  =           0       CLZ = 0.500
 Exchange correlation treatment:
   GGA     =    --    GGA type
   LEXCH   =     8    internal setting for exchange type
   VOSKOWN=      0    Vosko Wilk Nusair interpolation
   LHFCALC =     F    Hartree Fock is set to
   LHFONE  =     F    Hartree Fock one center treatment
   AEXX    =    0.0000 exact exchange contribution

 Linear response parameters
   LEPSILON=     F    determine dielectric tensor
   LRPA    =     F    only Hartree local field effects (RPA)
   LNABLA  =     F    use nabla operator in PAW spheres
   LVEL    =     F    velocity operator in full k-point grid
   LINTERFAST=   F  fast interpolation
   KINTER  =     0    interpolate to denser k-point grid
   CSHIFT  =0.1000    complex shift for real part using Kramers Kronig
   OMEGAMAX=  -1.0    maximum frequency
   DEG_THRESHOLD= 0.2000000E-02 threshold for treating states as degnerate
   RTIME   =    0.100 relaxation time in fs

 Orbital magnetization related:
   ORBITALMAG=     F  switch on orbital magnetization
   LCHIMAG   =     F  perturbation theory with respect to B field
   DQ        =  0.001000  dq finite difference perturbation B field



--------------------------------------------------------------------------------------------------------


 Static calculation
 charge density and potential will be updated during run
 spin polarized calculation
 Variant of blocked Davidson
 Davidson routine will perform the subspace rotation
 perform sub-space diagonalisation
    after iterative eigenvector-optimisation
 modified Broyden-mixing scheme, WC =      100.0
 initial mixing is a Kerker type mixing with AMIX =  0.4000 and BMIX =      2.0000
 Hartree-type preconditioning will be used
 using additional bands           45
 real space projection scheme for non local part
 use partial core corrections
 calculate Harris-corrections to forces 
   (improved forces if not selfconsistent)
 use gradient corrections 
 use of overlap-Matrix (Vanderbilt PP)
 Gauss-broadening in eV      SIGMA  =   0.01


--------------------------------------------------------------------------------------------------------


  energy-cutoff  :      700.00
  volume of cell :     8000.00
      direct lattice vectors                 reciprocal lattice vectors
    20.000000000  0.000000000  0.000000000     0.050000000  0.000000000  0.000000000
     0.000000000 20.000000000  0.000000000     0.000000000  0.050000000  0.000000000
     0.000000000  0.000000000 20.000000000     0.000000000  0.000000000  0.050000000

  length of vectors
    20.000000000 20.000000000 20.000000000     0.050000000  0.050000000  0.050000000


 
 k-points in units of 2pi/SCALE and weight: K-Points                                
   0.00000000  0.00000000  0.00000000       1.000
 
 k-points in reciprocal lattice and weights: K-Points                                
   0.00000000  0.00000000  0.00000000       1.000
 
 position of ions in fractional coordinates (direct lattice) 
   0.39825425  0.53800137  0.60426081
   0.43793752  0.56561110  0.32757008
   0.45581208  0.52423376  0.38051465
   0.47372925  0.61530131  0.44986522
   0.45595175  0.65963312  0.39935201
   0.43785737  0.63472201  0.33675972
   0.52307882  0.32955005  0.67474498
   0.49710163  0.37190466  0.62618823
   0.60227374  0.41933300  0.60593616
   0.63096398  0.37761922  0.65422416
   0.73964927  0.52855915  0.53463181
   0.70082162  0.56612858  0.49044049
   0.63257913  0.55363620  0.48652424
   0.63952130  0.46927713  0.56732841
   0.70843899  0.47974495  0.57314689
   0.59134754  0.33224398  0.68903016
   0.36211554  0.48866484  0.56417415
   0.40790931  0.62211625  0.69058213
   0.47619960  0.62606623  0.67660612
   0.50295190  0.58590820  0.62668073
   0.29334713  0.47671938  0.56830116
   0.36904589  0.57756069  0.65398228
   0.37289802  0.40579857  0.48223443
   0.30486503  0.39173492  0.48443166
   0.26422003  0.42785518  0.52821594
   0.48989745  0.29510618  0.70074864
   0.61334240  0.29968355  0.72673159
   0.68424189  0.38076917  0.66478776
   0.54225374  0.36233861  0.46129841
   0.31579090  0.57306911  0.66420366
   0.44416348  0.37118871  0.61364770
   0.42392665  0.66833230  0.29622671
   0.45642762  0.71313270  0.40950260
   0.48809132  0.63358802  0.49907234
   0.56912778  0.41808713  0.41480476
   0.73767440  0.44963919  0.60776512
   0.72277620  0.60481012  0.45904817
   0.45570253  0.47012894  0.37468790
   0.40614333  0.37888556  0.44852541
   0.28443799  0.35306162  0.45202062
   0.79326502  0.53703787  0.53892527
   0.55589708  0.58769132  0.61440612
   0.42412006  0.54328620  0.27986105
   0.50894741  0.65984570  0.70400156
   0.26265982  0.50568523  0.60265428
   0.21072272  0.41813760  0.53105039
   0.60090654  0.58197914  0.45254259
   0.38544357  0.65296704  0.72941133
   0.47424490  0.54794204  0.44140236
   0.40180479  0.45306079  0.52108436
   0.53520702  0.41608490  0.59173240
   0.46544808  0.54254992  0.59041194
   0.60138410  0.50650621  0.52397638
   0.53073984  0.40562607  0.44215451
   0.50088568  0.48087016  0.51934246
 
 position of ions in cartesian coordinates  (Angst):
   7.96508499 10.76002740 12.08521614
   8.75875044 11.31222209  6.55140167
   9.11624161 10.48467523  7.61029296
   9.47458509 12.30602619  8.99730442
   9.11903505 13.19266234  7.98704025
   8.75714739 12.69444028  6.73519441
  10.46157638  6.59100110 13.49489953
   9.94203263  7.43809325 12.52376455
  12.04547477  8.38665999 12.11872314
  12.61927957  7.55238445 13.08448329
  14.79298537 10.57118301 10.69263621
  14.01643234 11.32257164  9.80880974
  12.65158254 11.07272405  9.73048485
  12.79042597  9.38554253 11.34656829
  14.16877978  9.59489901 11.46293786
  11.82695089  6.64487969 13.78060313
   7.24231077  9.77329687 11.28348299
   8.15818611 12.44232505 13.81164268
   9.52399198 12.52132464 13.53212240
  10.05903801 11.71816400 12.53361469
   5.86694270  9.53438759 11.36602327
   7.38091777 11.55121387 13.07964553
   7.45796037  8.11597149  9.64468853
   6.09730063  7.83469839  9.68863321
   5.28440067  8.55710369 10.56431882
   9.79794892  5.90212351 14.01497288
  12.26684793  5.99367109 14.53463185
  13.68483783  7.61538334 13.29575520
  10.84507475  7.24677213  9.22596819
   6.31581791 11.46138226 13.28407311
   8.88326966  7.42377422 12.27295397
   8.47853309 13.36664601  5.92453423
   9.12855243 14.26265408  8.19005201
   9.76182647 12.67176037  9.98144677
  11.38255564  8.36174255  8.29609511
  14.75348806  8.99278384 12.15530242
  14.45552391 12.09620238  9.18096343
   9.11405064  9.40257887  7.49375804
   8.12286663  7.57771114  8.97050829
   5.68875982  7.06123239  9.04041232
  15.86530045 10.74075733 10.77850539
  11.11794158 11.75382641 12.28812234
   8.48240128 10.86572407  5.59722093
  10.17894811 13.19691406 14.08003122
   5.25319634 10.11370460 12.05308551
   4.21445446  8.36275200 10.62100772
  12.01813087 11.63958272  9.05085175
   7.70887141 13.05934086 14.58822659
   9.48489793 10.95884088  8.82804729
   8.03609572  9.06121573 10.42168714
  10.70414049  8.32169803 11.83464804
   9.30896151 10.85099836 11.80823871
  12.02768196 10.13012430 10.47952760
  10.61479684  8.11252146  8.84309019
  10.01771355  9.61740316 10.38684921
 


--------------------------------------------------------------------------------------------------------


 k-point  1 :   0.0000 0.0000 0.0000  plane waves:  336427

 maximum and minimum number of plane-waves per node :    336427   336427

 maximum number of plane-waves:    336427
 maximum index in each direction: 
   IXMAX=   43   IYMAX=   43   IZMAX=   43
   IXMIN=  -43   IYMIN=  -43   IZMIN=  -43

 NGX is ok and might be reduce to 174
 NGY is ok and might be reduce to 174
 NGZ is ok and might be reduce to 174

 serial   3D FFT for wavefunctions
 parallel 3D FFT for charge:
    minimum data exchange during FFTs selected (reduces bandwidth)


 total amount of memory used by VASP on root node   877132. kBytes
========================================================================

   base      :      30000. kBytes
   nonlr-proj:      19361. kBytes
   fftplans  :     269516. kBytes
   grid      :     534988. kBytes
   one-center:       1710. kBytes
   wavefun   :      21557. kBytes
 
     INWAV:  cpu time    0.00: real time    0.00
 Broyden mixing: mesh for mixing (old mesh)
   NGX = 87   NGY = 87   NGZ = 87
  (NGX  =360   NGY  =360   NGZ  =360)
  gives a total of 658503 points

 initial charge density was supplied:
 charge density of overlapping atoms calculated
 number of electron     168.5000000 magnetization       0.0000000
 keeping initial charge density in first step


--------------------------------------------------------------------------------------------------------


 Maximum index for non-local projection operator         8166
 Maximum index for augmentation-charges         3214 (set IRDMAX)


--------------------------------------------------------------------------------------------------------


 First call to EWALD:  gamma=   0.089
 Maximum number of real-space cells 3x 3x 3
 Maximum number of reciprocal cells 3x 3x 3

 FEWALD executed in parallel
    FEWALD:  cpu time    0.01: real time    0.01


----------------------------------------- Iteration    1(   1)  ---------------------------------------


    POTLOK:  cpu time    4.73: real time    4.76
    SETDIJ:  cpu time    2.83: real time    2.83
     EDDAV:  cpu time   14.81: real time   15.72
       DOS:  cpu time    0.02: real time    0.02
    --------------------------------------------
      LOOP:  cpu time   22.39: real time   23.34

 eigenvalue-minimisations  :   768
 total energy-change (2. order) : 0.9104783E+03  (-0.5880648E+04)
 number of electron     168.5000000 magnetization       0.0000000
 augmentation part      168.5000000 magnetization       0.0000000

 Free energy of the ion-electron system (eV)
  ---------------------------------------------------
  alpha Z        PSCENC =        12.91687988
  Ewald energy   TEWEN  =     23341.34424647
  -Hartree energ DENC   =    -28943.03694826
  -exchange      EXHF   =         0.00000000
  -V(xc)+E(xc)   XCENC  =       401.01655884
  PAW double counting   =      5890.45591622    -5710.10246236
  entropy T*S    EENTRO =        -0.00000212
  eigenvalues    EBANDS =     -1675.51576923
  atomic energy  EATOM  =      7593.39991119
  ---------------------------------------------------
  free energy    TOTEN  =       910.47833064 eV

  energy without entropy =      910.47833276  energy(sigma->0) =      910.47833170


--------------------------------------------------------------------------------------------------------




----------------------------------------- Iteration    1(   2)  ---------------------------------------


     EDDAV:  cpu time   19.26: real time   20.29
       DOS:  cpu time    0.01: real time    0.01
    --------------------------------------------
      LOOP:  cpu time   19.27: real time   20.30

 eigenvalue-minimisations  :  1024
 total energy-change (2. order) :-0.9802422E+03  (-0.9737463E+03)
 number of electron     168.5000000 magnetization       0.0000000
 augmentation part      168.5000000 magnetization       0.0000000

 Free energy of the ion-electron system (eV)
  ---------------------------------------------------
  alpha Z        PSCENC =        12.91687988
  Ewald energy   TEWEN  =     23341.34424647
  -Hartree energ DENC   =    -28943.03694826
  -exchange      EXHF   =         0.00000000
  -V(xc)+E(xc)   XCENC  =       401.01655884
  PAW double counting   =      5890.45591622    -5710.10246236
  entropy T*S    EENTRO =        -0.00000000
  eigenvalues    EBANDS =     -2655.75795587
  atomic energy  EATOM  =      7593.39991119
  ---------------------------------------------------
  free energy    TOTEN  =       -69.76385388 eV

  energy without entropy =      -69.76385388  energy(sigma->0) =      -69.76385388


--------------------------------------------------------------------------------------------------------




----------------------------------------- Iteration    1(   3)  ---------------------------------------


     EDDAV:  cpu time   14.94: real time   15.84
       DOS:  cpu time    0.01: real time    0.01
    --------------------------------------------
      LOOP:  cpu time   14.95: real time   15.85

 eigenvalue-minimisations  :   768
 total energy-change (2. order) :-0.3207698E+03  (-0.3201939E+03)
 number of electron     168.5000000 magnetization       0.0000000
 augmentation part      168.5000000 magnetization       0.0000000

 Free energy of the ion-electron system (eV)
  ---------------------------------------------------
  alpha Z        PSCENC =        12.91687988
  Ewald energy   TEWEN  =     23341.34424647
  -Hartree energ DENC   =    -28943.03694826
  -exchange      EXHF   =         0.00000000
  -V(xc)+E(xc)   XCENC  =       401.01655884
  PAW double counting   =      5890.45591622    -5710.10246236
  entropy T*S    EENTRO =        -0.00000000
  eigenvalues    EBANDS =     -2976.52780239
  atomic energy  EATOM  =      7593.39991119
  ---------------------------------------------------
  free energy    TOTEN  =      -390.53370041 eV

  energy without entropy =     -390.53370041  energy(sigma->0) =     -390.53370041


--------------------------------------------------------------------------------------------------------




----------------------------------------- Iteration    1(   4)  ---------------------------------------


     EDDAV:  cpu time   14.89: real time   15.76
       DOS:  cpu time    0.01: real time    0.01
    --------------------------------------------
      LOOP:  cpu time   14.90: real time   15.77

 eigenvalue-minimisations  :   768
 total energy-change (2. order) :-0.2007816E+02  (-0.2004283E+02)
 number of electron     168.5000000 magnetization       0.0000000
 augmentation part      168.5000000 magnetization       0.0000000

 Free energy of the ion-electron system (eV)
  ---------------------------------------------------
  alpha Z        PSCENC =        12.91687988
  Ewald energy   TEWEN  =     23341.34424647
  -Hartree energ DENC   =    -28943.03694826
  -exchange      EXHF   =         0.00000000
  -V(xc)+E(xc)   XCENC  =       401.01655884
  PAW double counting   =      5890.45591622    -5710.10246236
  entropy T*S    EENTRO =        -0.00000000
  eigenvalues    EBANDS =     -2996.60596682
  atomic energy  EATOM  =      7593.39991119
  ---------------------------------------------------
  free energy    TOTEN  =      -410.61186483 eV

  energy without entropy =     -410.61186483  energy(sigma->0) =     -410.61186483


--------------------------------------------------------------------------------------------------------




----------------------------------------- Iteration    1(   5)  ---------------------------------------


     EDDAV:  cpu time   16.00: real time   16.94
       DOS:  cpu time    0.01: real time    0.01
    CHARGE:  cpu time    5.24: real time    5.40
    MIXING:  cpu time    0.08: real time    0.08
    --------------------------------------------
      LOOP:  cpu time   21.33: real time   22.43

 eigenvalue-minimisations  :   832
 total energy-change (2. order) :-0.2419210E+00  (-0.2416448E+00)
 number of electron     166.0000000 magnetization      -0.0000000
 augmentation part        3.6440499 magnetization      -0.0018138

 Broyden mixing:
  rms(total) = 0.56743E+01    rms(broyden)= 0.56736E+01
  rms(prec ) = 0.60256E+01
  weight for this iteration     100.00

 Free energy of the ion-electron system (eV)
  ---------------------------------------------------
  alpha Z        PSCENC =        12.91687988
  Ewald energy   TEWEN  =     23341.34424647
  -Hartree energ DENC   =    -28943.03694826
  -exchange      EXHF   =         0.00000000
  -V(xc)+E(xc)   XCENC  =       401.01655884
  PAW double counting   =      5890.45591622    -5710.10246236
  entropy T*S    EENTRO =        -0.00000000
  eigenvalues    EBANDS =     -2996.84788783
  atomic energy  EATOM  =      7593.39991119
  ---------------------------------------------------
  free energy    TOTEN  =      -410.85378584 eV

  energy without entropy =     -410.85378584  energy(sigma->0) =     -410.85378584


--------------------------------------------------------------------------------------------------------




----------------------------------------- Iteration    1(   6)  ---------------------------------------


    POTLOK:  cpu time    4.59: real time    4.63
    SETDIJ:  cpu time    2.84: real time    2.85
     EDDAV:  cpu time   12.89: real time   13.63
       DOS:  cpu time    0.08: real time    0.08
    CHARGE:  cpu time    5.08: real time    5.08
    MIXING:  cpu time    0.24: real time    0.24
    --------------------------------------------
      LOOP:  cpu time   25.73: real time   26.51

 eigenvalue-minimisations  :   640
 total energy-change (2. order) : 0.1883335E+02  (-0.3130439E+02)
 number of electron     166.0000000 magnetization      -0.0000000
 augmentation part        6.4039716 magnetization      -0.0000803

 Broyden mixing:
  rms(total) = 0.37897E+01    rms(broyden)= 0.37896E+01
  rms(prec ) = 0.39472E+01
  weight for this iteration     100.00

 eigenvalues of (default mixing * dielectric matrix)
  average eigenvalue GAMMA=   1.1012
  1.1012

 Free energy of the ion-electron system (eV)
  ---------------------------------------------------
  alpha Z        PSCENC =        12.91687988
  Ewald energy   TEWEN  =     23341.34424647
  -Hartree energ DENC   =    -28953.38772051
  -exchange      EXHF   =         0.00000000
  -V(xc)+E(xc)   XCENC  =       406.52442117
  PAW double counting   =     20909.31797353   -20741.43815929
  entropy T*S    EENTRO =        -0.00000000
  eigenvalues    EBANDS =     -2960.69798723
  atomic energy  EATOM  =      7593.39991119
  ---------------------------------------------------
  free energy    TOTEN  =      -392.02043478 eV

  energy without entropy =     -392.02043478  energy(sigma->0) =     -392.02043478


--------------------------------------------------------------------------------------------------------




----------------------------------------- Iteration    1(   7)  ---------------------------------------


    POTLOK:  cpu time    4.59: real time    4.61
    SETDIJ:  cpu time    2.86: real time    2.86
     EDDAV:  cpu time   15.07: real time   16.34
       DOS:  cpu time    0.04: real time    0.04
    CHARGE:  cpu time    5.27: real time    5.33
    MIXING:  cpu time    0.10: real time    0.11
    --------------------------------------------
      LOOP:  cpu time   27.93: real time   29.28

 eigenvalue-minimisations  :   768
 total energy-change (2. order) : 0.9974819E+01  (-0.2138530E+01)
 number of electron     166.0000000 magnetization      -0.0000000
 augmentation part        5.5072798 magnetization      -0.0000758

 Broyden mixing:
  rms(total) = 0.23124E+01    rms(broyden)= 0.23124E+01
  rms(prec ) = 0.23779E+01
  weight for this iteration     100.00

 eigenvalues of (default mixing * dielectric matrix)
  average eigenvalue GAMMA=   1.5175
  0.7623  2.2726

 Free energy of the ion-electron system (eV)
  ---------------------------------------------------
  alpha Z        PSCENC =        12.91687988
  Ewald energy   TEWEN  =     23341.34424647
  -Hartree energ DENC   =    -29082.10073632
  -exchange      EXHF   =         0.00000000
  -V(xc)+E(xc)   XCENC  =       412.03160059
  PAW double counting   =     37078.20745615   -36905.66874364
  entropy T*S    EENTRO =        -0.00000000
  eigenvalues    EBANDS =     -2832.17623000
  atomic energy  EATOM  =      7593.39991119
  ---------------------------------------------------
  free energy    TOTEN  =      -382.04561567 eV

  energy without entropy =     -382.04561567  energy(sigma->0) =     -382.04561567


--------------------------------------------------------------------------------------------------------




----------------------------------------- Iteration    1(   8)  ---------------------------------------


    POTLOK:  cpu time    4.59: real time    4.61
    SETDIJ:  cpu time    2.83: real time    2.84
     EDDAV:  cpu time   15.13: real time   16.38
       DOS:  cpu time    0.05: real time    0.05
    CHARGE:  cpu time    5.17: real time    5.19
    MIXING:  cpu time    0.09: real time    0.09
    --------------------------------------------
      LOOP:  cpu time   27.87: real time   29.16

 eigenvalue-minimisations  :   768
 total energy-change (2. order) : 0.3918579E+01  (-0.1713647E+01)
 number of electron     166.0000000 magnetization      -0.0000000
 augmentation part        4.8013864 magnetization      -0.0001221

 Broyden mixing:
  rms(total) = 0.89989E+00    rms(broyden)= 0.89985E+00
  rms(prec ) = 0.99845E+00
  weight for this iteration     100.00

 eigenvalues of (default mixing * dielectric matrix)
  average eigenvalue GAMMA=   1.4657
  2.7092  0.8439  0.8439

 Free energy of the ion-electron system (eV)
  ---------------------------------------------------
  alpha Z        PSCENC =        12.91687988
  Ewald energy   TEWEN  =     23341.34424647
  -Hartree energ DENC   =    -29236.82328703
  -exchange      EXHF   =         0.00000000
  -V(xc)+E(xc)   XCENC  =       420.47356398
  PAW double counting   =     72963.53265944   -72788.09850229
  entropy T*S    EENTRO =        -0.00000000
  eigenvalues    EBANDS =     -2684.87250834
  atomic energy  EATOM  =      7593.39991119
  ---------------------------------------------------
  free energy    TOTEN  =      -378.12703668 eV

  energy without entropy =     -378.12703668  energy(sigma->0) =     -378.12703668


--------------------------------------------------------------------------------------------------------




----------------------------------------- Iteration    1(   9)  ---------------------------------------


    POTLOK:  cpu time    4.59: real time    4.61
    SETDIJ:  cpu time    2.84: real time    2.85
     EDDAV:  cpu time   15.06: real time   16.36
       DOS:  cpu time    0.04: real time    0.04
    CHARGE:  cpu time    5.10: real time    5.33
    MIXING:  cpu time    0.09: real time    0.09
    --------------------------------------------
      LOOP:  cpu time   27.72: real time   29.29

 eigenvalue-minimisations  :   768
 total energy-change (2. order) : 0.1044783E+01  (-0.7271884E+00)
 number of electron     166.0000000 magnetization      -0.0000000
 augmentation part        5.2853896 magnetization       0.0000273

 Broyden mixing:
  rms(total) = 0.34255E+00    rms(broyden)= 0.34251E+00
  rms(prec ) = 0.38194E+00
  weight for this iteration     100.00

 eigenvalues of (default mixing * dielectric matrix)
  average eigenvalue GAMMA=   1.3262
  2.5063  1.2644  0.7670  0.7670

 Free energy of the ion-electron system (eV)
  ---------------------------------------------------
  alpha Z        PSCENC =        12.91687988
  Ewald energy   TEWEN  =     23341.34424647
  -Hartree energ DENC   =    -29240.97672135
  -exchange      EXHF   =         0.00000000
  -V(xc)+E(xc)   XCENC  =       422.43669471
  PAW double counting   =     82832.23903643   -82658.99019716
  entropy T*S    EENTRO =        -0.00000000
  eigenvalues    EBANDS =     -2679.45210400
  atomic energy  EATOM  =      7593.39991119
  ---------------------------------------------------
  free energy    TOTEN  =      -377.08225382 eV

  energy without entropy =     -377.08225382  energy(sigma->0) =     -377.08225382


--------------------------------------------------------------------------------------------------------




----------------------------------------- Iteration    1(  10)  ---------------------------------------


    POTLOK:  cpu time    4.59: real time    4.61
    SETDIJ:  cpu time    2.83: real time    2.84
     EDDAV:  cpu time   15.17: real time   16.42
       DOS:  cpu time    0.05: real time    0.05
    CHARGE:  cpu time    5.18: real time    5.20
    MIXING:  cpu time    0.12: real time    0.12
    --------------------------------------------
      LOOP:  cpu time   27.95: real time   29.24

 eigenvalue-minimisations  :   768
 total energy-change (2. order) : 0.2257377E-01  (-0.2529862E-01)
 number of electron     166.0000000 magnetization      -0.0000000
 augmentation part        5.3486914 magnetization       0.0000011

 Broyden mixing:
  rms(total) = 0.24983E+00    rms(broyden)= 0.24983E+00
  rms(prec ) = 0.29624E+00
  weight for this iteration     100.00

 eigenvalues of (default mixing * dielectric matrix)
  average eigenvalue GAMMA=   1.3695
  2.4477  1.8332  0.8108  0.8108  0.9450

 Free energy of the ion-electron system (eV)
  ---------------------------------------------------
  alpha Z        PSCENC =        12.91687988
  Ewald energy   TEWEN  =     23341.34424647
  -Hartree energ DENC   =    -29228.96880973
  -exchange      EXHF   =         0.00000000
  -V(xc)+E(xc)   XCENC  =       422.39274120
  PAW double counting   =     81169.91672768   -80996.97518614
  entropy T*S    EENTRO =        -0.00000000
  eigenvalues    EBANDS =     -2691.08619061
  atomic energy  EATOM  =      7593.39991119
  ---------------------------------------------------
  free energy    TOTEN  =      -377.05968005 eV

  energy without entropy =     -377.05968005  energy(sigma->0) =     -377.05968005


--------------------------------------------------------------------------------------------------------




----------------------------------------- Iteration    1(  11)  ---------------------------------------


    POTLOK:  cpu time    4.61: real time    4.63
    SETDIJ:  cpu time    2.81: real time    2.81
     EDDAV:  cpu time   15.04: real time   16.32
       DOS:  cpu time    0.05: real time    0.05
    CHARGE:  cpu time    5.36: real time    5.38
    MIXING:  cpu time    0.08: real time    0.08
    --------------------------------------------
      LOOP:  cpu time   27.94: real time   29.26

 eigenvalue-minimisations  :   768
 total energy-change (2. order) : 0.1374902E+00  (-0.1606985E-01)
 number of electron     166.0000000 magnetization      -0.0000000
 augmentation part        5.2940137 magnetization       0.0000235

 Broyden mixing:
  rms(total) = 0.10774E+00    rms(broyden)= 0.10773E+00
  rms(prec ) = 0.15148E+00
  weight for this iteration     100.00

 eigenvalues of (default mixing * dielectric matrix)
  average eigenvalue GAMMA=   1.4640
  2.6191  2.6191  0.8376  0.8376  0.9873  0.8832

 Free energy of the ion-electron system (eV)
  ---------------------------------------------------
  alpha Z        PSCENC =        12.91687988
  Ewald energy   TEWEN  =     23341.34424647
  -Hartree energ DENC   =    -29227.13248430
  -exchange      EXHF   =         0.00000000
  -V(xc)+E(xc)   XCENC  =       423.10719540
  PAW double counting   =     81777.40077880   -81604.21992780
  entropy T*S    EENTRO =        -0.00000000
  eigenvalues    EBANDS =     -2693.73878946
  atomic energy  EATOM  =      7593.39991119
  ---------------------------------------------------
  free energy    TOTEN  =      -376.92218980 eV

  energy without entropy =     -376.92218980  energy(sigma->0) =     -376.92218980


--------------------------------------------------------------------------------------------------------




----------------------------------------- Iteration    1(  12)  ---------------------------------------


    POTLOK:  cpu time    4.61: real time    4.63
    SETDIJ:  cpu time    2.82: real time    2.82
     EDDAV:  cpu time   15.17: real time   16.45
       DOS:  cpu time    0.05: real time    0.05
    CHARGE:  cpu time    5.06: real time    5.25
    MIXING:  cpu time    0.11: real time    0.11
    --------------------------------------------
      LOOP:  cpu time   27.82: real time   29.30

 eigenvalue-minimisations  :   768
 total energy-change (2. order) : 0.7527775E-01  (-0.1091585E-01)
 number of electron     166.0000000 magnetization      -0.0000000
 augmentation part        5.2477697 magnetization      -0.0000201

 Broyden mixing:
  rms(total) = 0.69454E-01    rms(broyden)= 0.69449E-01
  rms(prec ) = 0.99798E-01
  weight for this iteration     100.00

 eigenvalues of (default mixing * dielectric matrix)
  average eigenvalue GAMMA=   1.4318
  2.8000  2.8000  1.0033  1.0033  0.8318  0.8318  0.7524

 Free energy of the ion-electron system (eV)
  ---------------------------------------------------
  alpha Z        PSCENC =        12.91687988
  Ewald energy   TEWEN  =     23341.34424647
  -Hartree energ DENC   =    -29222.13490119
  -exchange      EXHF   =         0.00000000
  -V(xc)+E(xc)   XCENC  =       423.73329835
  PAW double counting   =     81619.26585928   -81445.95294927
  entropy T*S    EENTRO =        -0.00000000
  eigenvalues    EBANDS =     -2699.41925677
  atomic energy  EATOM  =      7593.39991119
  ---------------------------------------------------
  free energy    TOTEN  =      -376.84691205 eV

  energy without entropy =     -376.84691205  energy(sigma->0) =     -376.84691205


--------------------------------------------------------------------------------------------------------




----------------------------------------- Iteration    1(  13)  ---------------------------------------


    POTLOK:  cpu time    4.60: real time    4.62
    SETDIJ:  cpu time    2.82: real time    2.82
     EDDAV:  cpu time   15.07: real time   16.32
       DOS:  cpu time    0.05: real time    0.05
    CHARGE:  cpu time    5.10: real time    5.10
    MIXING:  cpu time    0.23: real time    0.24
    --------------------------------------------
      LOOP:  cpu time   27.87: real time   29.16

 eigenvalue-minimisations  :   768
 total energy-change (2. order) : 0.1937758E-01  (-0.1721868E-02)
 number of electron     166.0000000 magnetization      -0.0000000
 augmentation part        5.2542354 magnetization       0.0000315

 Broyden mixing:
  rms(total) = 0.49815E-01    rms(broyden)= 0.49814E-01
  rms(prec ) = 0.73066E-01
  weight for this iteration     100.00

 eigenvalues of (default mixing * dielectric matrix)
  average eigenvalue GAMMA=   1.5447
  3.3274  2.9138  1.5558  1.1278  1.1278  0.8354  0.8354  0.6343

 Free energy of the ion-electron system (eV)
  ---------------------------------------------------
  alpha Z        PSCENC =        12.91687988
  Ewald energy   TEWEN  =     23341.34424647
  -Hartree energ DENC   =    -29215.06663549
  -exchange      EXHF   =         0.00000000
  -V(xc)+E(xc)   XCENC  =       423.98105636
  PAW double counting   =     81185.16492543   -81011.94250046
  entropy T*S    EENTRO =        -0.00000000
  eigenvalues    EBANDS =     -2706.62541788
  atomic energy  EATOM  =      7593.39991119
  ---------------------------------------------------
  free energy    TOTEN  =      -376.82753447 eV

  energy without entropy =     -376.82753447  energy(sigma->0) =     -376.82753447


--------------------------------------------------------------------------------------------------------




----------------------------------------- Iteration    1(  14)  ---------------------------------------


    POTLOK:  cpu time    4.67: real time    4.71
    SETDIJ:  cpu time    2.86: real time    2.86
     EDDAV:  cpu time   15.18: real time   16.44
       DOS:  cpu time    0.05: real time    0.05
    CHARGE:  cpu time    5.08: real time    5.08
    MIXING:  cpu time    0.18: real time    0.18
    --------------------------------------------
      LOOP:  cpu time   28.04: real time   29.33

 eigenvalue-minimisations  :   768
 total energy-change (2. order) : 0.1107680E-01  (-0.1600664E-02)
 number of electron     166.0000000 magnetization      -0.0000000
 augmentation part        5.2597683 magnetization      -0.0000104

 Broyden mixing:
  rms(total) = 0.29002E-01    rms(broyden)= 0.29001E-01
  rms(prec ) = 0.44638E-01
  weight for this iteration     100.00

 eigenvalues of (default mixing * dielectric matrix)
  average eigenvalue GAMMA=   1.5859
  4.2767  2.6194  1.9293  1.2549  0.8258  0.8258  0.9593  0.9593  0.6221

 Free energy of the ion-electron system (eV)
  ---------------------------------------------------
  alpha Z        PSCENC =        12.91687988
  Ewald energy   TEWEN  =     23341.34424647
  -Hartree energ DENC   =    -29205.42073936
  -exchange      EXHF   =         0.00000000
  -V(xc)+E(xc)   XCENC  =       424.23937953
  PAW double counting   =     80889.13300387   -80715.99507369
  entropy T*S    EENTRO =        -0.00000000
  eigenvalues    EBANDS =     -2716.43406558
  atomic energy  EATOM  =      7593.39991119
  ---------------------------------------------------
  free energy    TOTEN  =      -376.81645767 eV

  energy without entropy =     -376.81645767  energy(sigma->0) =     -376.81645767


--------------------------------------------------------------------------------------------------------




----------------------------------------- Iteration    1(  15)  ---------------------------------------


    POTLOK:  cpu time    4.61: real time    4.64
    SETDIJ:  cpu time    2.81: real time    2.81
     EDDAV:  cpu time   15.03: real time   16.32
       DOS:  cpu time    0.04: real time    0.04
    CHARGE:  cpu time    5.12: real time    5.12
    MIXING:  cpu time    0.20: real time    0.20
    --------------------------------------------
      LOOP:  cpu time   27.81: real time   29.14

 eigenvalue-minimisations  :   768
 total energy-change (2. order) :-0.1917052E-02  (-0.5034440E-03)
 number of electron     166.0000000 magnetization      -0.0000000
 augmentation part        5.2563222 magnetization      -0.0000017

 Broyden mixing:
  rms(total) = 0.24422E-01    rms(broyden)= 0.24421E-01
  rms(prec ) = 0.33474E-01
  weight for this iteration     100.00

 eigenvalues of (default mixing * dielectric matrix)
  average eigenvalue GAMMA=   1.5636
  4.7346  2.4563  2.1715  1.3058  1.0590  1.0590  0.8245  0.8245  0.6430  0.5576

 Free energy of the ion-electron system (eV)
  ---------------------------------------------------
  alpha Z        PSCENC =        12.91687988
  Ewald energy   TEWEN  =     23341.34424647
  -Hartree energ DENC   =    -29197.41904704
  -exchange      EXHF   =         0.00000000
  -V(xc)+E(xc)   XCENC  =       424.35657130
  PAW double counting   =     80927.64283359   -80754.49839028
  entropy T*S    EENTRO =        -0.00000000
  eigenvalues    EBANDS =     -2724.56137985
  atomic energy  EATOM  =      7593.39991119
  ---------------------------------------------------
  free energy    TOTEN  =      -376.81837473 eV

  energy without entropy =     -376.81837473  energy(sigma->0) =     -376.81837473


--------------------------------------------------------------------------------------------------------




----------------------------------------- Iteration    1(  16)  ---------------------------------------


    POTLOK:  cpu time    4.76: real time    4.79
    SETDIJ:  cpu time    2.80: real time    2.80
     EDDAV:  cpu time   15.23: real time   16.52
       DOS:  cpu time    0.05: real time    0.05
    CHARGE:  cpu time    5.18: real time    5.18
    MIXING:  cpu time    0.28: real time    0.28
    --------------------------------------------
      LOOP:  cpu time   28.30: real time   29.62

 eigenvalue-minimisations  :   768
 total energy-change (2. order) :-0.6779490E-02  (-0.1294610E-03)
 number of electron     166.0000000 magnetization      -0.0000000
 augmentation part        5.2577338 magnetization       0.0000010

 Broyden mixing:
  rms(total) = 0.18663E-01    rms(broyden)= 0.18663E-01
  rms(prec ) = 0.24785E-01
  weight for this iteration     100.00

 eigenvalues of (default mixing * dielectric matrix)
  average eigenvalue GAMMA=   1.6789
  5.5904  2.5707  2.5707  1.4722  1.4722  0.8357  0.8357  1.0606  0.9564  0.6291
  0.4738

 Free energy of the ion-electron system (eV)
  ---------------------------------------------------
  alpha Z        PSCENC =        12.91687988
  Ewald energy   TEWEN  =     23341.34424647
  -Hartree energ DENC   =    -29190.92598068
  -exchange      EXHF   =         0.00000000
  -V(xc)+E(xc)   XCENC  =       424.34608090
  PAW double counting   =     80997.05537213   -80823.90181756
  entropy T*S    EENTRO =        -0.00000000
  eigenvalues    EBANDS =     -2731.05984655
  atomic energy  EATOM  =      7593.39991119
  ---------------------------------------------------
  free energy    TOTEN  =      -376.82515422 eV

  energy without entropy =     -376.82515422  energy(sigma->0) =     -376.82515422


--------------------------------------------------------------------------------------------------------




----------------------------------------- Iteration    1(  17)  ---------------------------------------


    POTLOK:  cpu time    4.62: real time    4.65
    SETDIJ:  cpu time    2.84: real time    2.84
     EDDAV:  cpu time   15.06: real time   16.32
       DOS:  cpu time    0.05: real time    0.05
    CHARGE:  cpu time    5.15: real time    5.15
    MIXING:  cpu time    0.18: real time    0.19
    --------------------------------------------
      LOOP:  cpu time   27.90: real time   29.20

 eigenvalue-minimisations  :   768
 total energy-change (2. order) :-0.6519785E-02  (-0.1602310E-03)
 number of electron     166.0000000 magnetization      -0.0000000
 augmentation part        5.2609931 magnetization       0.0000027

 Broyden mixing:
  rms(total) = 0.84625E-02    rms(broyden)= 0.84623E-02
  rms(prec ) = 0.12781E-01
  weight for this iteration     100.00

 eigenvalues of (default mixing * dielectric matrix)
  average eigenvalue GAMMA=   1.7352
  6.3760  2.8112  2.8112  1.5374  1.5114  1.1377  0.8354  0.8354  0.9808  0.8897
  0.6276  0.4684

 Free energy of the ion-electron system (eV)
  ---------------------------------------------------
  alpha Z        PSCENC =        12.91687988
  Ewald energy   TEWEN  =     23341.34424647
  -Hartree energ DENC   =    -29183.38648480
  -exchange      EXHF   =         0.00000000
  -V(xc)+E(xc)   XCENC  =       424.30449596
  PAW double counting   =     81064.45634528   -80891.29761628
  entropy T*S    EENTRO =        -0.00000000
  eigenvalues    EBANDS =     -2738.56945170
  atomic energy  EATOM  =      7593.39991119
  ---------------------------------------------------
  free energy    TOTEN  =      -376.83167400 eV

  energy without entropy =     -376.83167400  energy(sigma->0) =     -376.83167400


--------------------------------------------------------------------------------------------------------




----------------------------------------- Iteration    1(  18)  ---------------------------------------


    POTLOK:  cpu time    4.75: real time    4.78
    SETDIJ:  cpu time    2.86: real time    2.87
     EDDAV:  cpu time   15.05: real time   16.32
       DOS:  cpu time    0.05: real time    0.05
    CHARGE:  cpu time    5.24: real time    5.25
    MIXING:  cpu time    0.24: real time    0.24
    --------------------------------------------
      LOOP:  cpu time   28.20: real time   29.51

 eigenvalue-minimisations  :   768
 total energy-change (2. order) :-0.5278204E-02  (-0.7868203E-04)
 number of electron     166.0000000 magnetization      -0.0000000
 augmentation part        5.2623070 magnetization      -0.0000037

 Broyden mixing:
  rms(total) = 0.69983E-02    rms(broyden)= 0.69982E-02
  rms(prec ) = 0.91784E-02
  weight for this iteration     100.00

 eigenvalues of (default mixing * dielectric matrix)
[...]
 12.597   0.000  21.219   0.000  -0.000   0.000  -0.003   0.000   0.011   0.000  -0.000   0.000  -0.006   0.000   0.020   0.000
 21.219   0.000  35.739   0.000  -0.000   0.000  -0.005   0.000   0.019   0.000  -0.000   0.000  -0.010   0.000   0.033   0.000
 -0.000   0.000  -0.000   0.000  -3.555   0.000  -0.001   0.000  -0.000   0.000  -6.391   0.000  -0.001   0.000  -0.000   0.000
 -0.003   0.000  -0.005   0.000  -0.001   0.000  -3.556   0.000   0.000   0.000  -0.001   0.000  -6.391   0.000   0.001   0.000
  0.011   0.000   0.019   0.000  -0.000   0.000   0.000   0.000  -3.557   0.000  -0.000   0.000   0.001   0.000  -6.393   0.000
 -0.000   0.000  -0.000   0.000  -6.391   0.000  -0.001   0.000  -0.000   0.000 -11.465   0.000  -0.003   0.000  -0.001   0.000
 -0.006   0.000  -0.010   0.000  -0.001   0.000  -6.391   0.000   0.001   0.000  -0.003   0.000 -11.465   0.000   0.002   0.000
  0.020   0.000   0.033   0.000  -0.000   0.000   0.001   0.000  -6.393   0.000  -0.001   0.000   0.002   0.000 -11.470   0.000
 pseudopotential strength for first ion, spin component:           2
 12.597   0.000  21.219   0.000  -0.000   0.000  -0.003   0.000   0.011   0.000  -0.000   0.000  -0.006   0.000   0.020   0.000
 21.219   0.000  35.739   0.000  -0.000   0.000  -0.005   0.000   0.019   0.000  -0.000   0.000  -0.010   0.000   0.033   0.000
 -0.000   0.000  -0.000   0.000  -3.555   0.000  -0.001   0.000  -0.000   0.000  -6.391   0.000  -0.001   0.000  -0.000   0.000
 -0.003   0.000  -0.005   0.000  -0.001   0.000  -3.556   0.000   0.000   0.000  -0.001   0.000  -6.391   0.000   0.001   0.000
  0.011   0.000   0.019   0.000  -0.000   0.000   0.000   0.000  -3.557   0.000  -0.000   0.000   0.001   0.000  -6.393   0.000
 -0.000   0.000  -0.000   0.000  -6.391   0.000  -0.001   0.000  -0.000   0.000 -11.465   0.000  -0.003   0.000  -0.001   0.000
 -0.006   0.000  -0.010   0.000  -0.001   0.000  -6.391   0.000   0.001   0.000  -0.003   0.000 -11.465   0.000   0.002   0.000
  0.020   0.000   0.033   0.000  -0.000   0.000   0.001   0.000  -6.393   0.000  -0.001   0.000   0.002   0.000 -11.470   0.000
 total augmentation occupancy for first ion, spin component:           1
  1.772  -0.561   0.079  -0.063   0.607  -0.014   0.046  -0.241
 -0.561   0.676  -0.014   0.072  -0.334  -0.008  -0.038   0.105
  0.079  -0.014   1.868   1.065   0.217  -0.223  -0.310  -0.066
 -0.063   0.072   1.065   2.021  -0.509  -0.310  -0.275   0.182
  0.607  -0.334   0.217  -0.509   3.367  -0.067   0.181  -0.793
 -0.014  -0.008  -0.223  -0.310  -0.067   0.153   0.023  -0.002
  0.046  -0.038  -0.310  -0.275   0.181   0.023   0.167  -0.041
 -0.241   0.105  -0.066   0.182  -0.793  -0.002  -0.041   0.276
 total augmentation occupancy for first ion, spin component:           2
 -0.000  -0.000   0.000  -0.000  -0.000   0.000  -0.000   0.000
 -0.000   0.000  -0.000   0.000   0.000  -0.000   0.000  -0.000
  0.000  -0.000   0.000   0.000  -0.000  -0.000  -0.000   0.000
 -0.000   0.000   0.000   0.000  -0.000  -0.000  -0.000   0.000
 -0.000   0.000  -0.000  -0.000   0.000   0.000   0.000  -0.000
  0.000  -0.000  -0.000  -0.000   0.000   0.000   0.000   0.000
 -0.000   0.000  -0.000  -0.000   0.000   0.000   0.000  -0.000
  0.000  -0.000   0.000   0.000  -0.000   0.000  -0.000   0.000


------------------------ aborting loop because EDIFF is reached ----------------------------------------


    CHARGE:  cpu time    5.10: real time    5.10
    FORLOC:  cpu time    0.67: real time    0.67
    FORNL :  cpu time   19.53: real time   19.56
    STRESS:  cpu time   61.95: real time   62.25
    FORCOR:  cpu time    4.21: real time    4.22
    FORHAR:  cpu time    1.06: real time    1.18
    MIXING:  cpu time    0.21: real time    0.21
    OFIELD:  cpu time    0.00: real time    0.00

  FORCE on cell =-STRESS in cart. coord.  units (eV):
  Direction    XX          YY          ZZ          XY          YZ          ZX
  --------------------------------------------------------------------------------------
  Alpha Z    12.91688    12.91688    12.91688
  Ewald   11200.06068  5601.39954  6539.86957   372.75308 -1512.67947   874.95280
  Hartree 12556.92917  7814.85320  8800.18982    90.29149 -1412.02636   704.63448
  E(xc)    -688.85051  -691.39290  -692.03596     1.42896    -0.00161     0.63320
  Local  -26128.14675-15820.95809-17764.32451  -441.45578  2926.24499 -1581.63174
  n-local   -27.93182   -28.63016   -32.08652     3.77571    -0.87728    -1.01490
  augment    83.34009    84.11823    82.88751     1.85817     0.17903     0.85818
  Kinetic  2977.42351  3012.90152  3037.58533   -28.88667    -3.03454     1.53610
  Fock        0.00000     0.00000     0.00000     0.00000     0.00000     0.00000
  -------------------------------------------------------------------------------------
  Total     -14.25873   -14.79179   -14.99788    -0.23505    -2.19523    -0.03188
  in kB      -2.85563    -2.96238    -3.00366    -0.04707    -0.43964    -0.00639
  external pressure =       -2.94 kB  Pullay stress =        0.00 kB


 VOLUME and BASIS-vectors are now :
 -----------------------------------------------------------------------------
  energy-cutoff  :      700.00
  volume of cell :     8000.00
      direct lattice vectors                 reciprocal lattice vectors
    20.000000000  0.000000000  0.000000000     0.050000000  0.000000000  0.000000000
     0.000000000 20.000000000  0.000000000     0.000000000  0.050000000  0.000000000
     0.000000000  0.000000000 20.000000000     0.000000000  0.000000000  0.050000000

  length of vectors
    20.000000000 20.000000000 20.000000000     0.050000000  0.050000000  0.050000000


 FORCES acting on ions
    electron-ion (+dipol)            ewald-force                    non-local-force                 convergence-correction
 -----------------------------------------------------------------------------------------------
   0.261E+03 -.109E+03 -.178E+03   -.268E+03 0.109E+03 0.180E+03   0.670E+01 -.675E-01 -.191E+01   -.147E-04 -.776E-05 -.110E-04
   0.877E+02 -.913E+01 0.334E+03   -.883E+02 0.937E+01 -.335E+03   0.640E+00 -.245E+00 0.188E+01   -.278E-05 -.105E-04 -.484E-04
   0.675E+02 0.805E+02 0.319E+03   -.697E+02 -.826E+02 -.325E+03   0.213E+01 0.213E+01 0.639E+01   0.886E-05 -.420E-04 0.141E-04
   0.291E+01 -.318E+03 0.309E+02   -.319E+01 0.325E+03 -.307E+02   0.272E+00 -.688E+01 -.222E+00   0.750E-05 -.225E-04 0.134E-04
   0.359E+02 -.326E+03 0.106E+03   -.363E+02 0.328E+03 -.106E+03   0.345E+00 -.181E+01 0.723E+00   0.749E-05 0.325E-04 -.242E-04
   0.802E+02 -.208E+03 0.264E+03   -.807E+02 0.209E+03 -.265E+03   0.535E+00 -.114E+01 0.148E+01   -.269E-05 0.424E-04 -.630E-04
   0.743E+02 0.268E+03 -.218E+03   -.747E+02 -.270E+03 0.220E+03   0.436E+00 0.155E+01 -.145E+01   0.388E-05 -.459E-04 0.236E-04
   0.150E+03 0.257E+03 -.164E+03   -.154E+03 -.261E+03 0.168E+03   0.390E+01 0.482E+01 -.386E+01   0.623E-05 0.192E-04 -.264E-04
   -.227E+03 0.123E+03 -.137E+03   0.232E+03 -.124E+03 0.140E+03   -.533E+01 0.118E+01 -.281E+01   0.237E-04 0.329E-04 -.471E-04
   -.258E+03 0.144E+03 -.181E+03   0.259E+03 -.145E+03 0.183E+03   -.129E+01 0.131E+01 -.171E+01   0.350E-04 0.188E-04 -.396E-04
   -.338E+03 -.696E+02 -.794E+00   0.340E+03 0.702E+02 0.703E+00   -.199E+01 -.530E+00 0.669E-01   0.448E-04 0.399E-05 0.165E-05
   -.258E+03 -.192E+03 0.137E+03   0.260E+03 0.194E+03 -.138E+03   -.158E+01 -.122E+01 0.779E+00   0.340E-04 0.248E-04 -.264E-04
   -.182E+03 -.214E+03 0.187E+03   0.185E+03 0.219E+03 -.191E+03   -.343E+01 -.509E+01 0.408E+01   -.172E-04 -.240E-04 -.712E-05
   -.266E+03 0.639E+02 -.920E+02   0.271E+03 -.658E+02 0.949E+02   -.493E+01 0.192E+01 -.290E+01   -.402E-04 -.429E-04 0.818E-05
   -.315E+03 0.613E+02 -.112E+03   0.317E+03 -.611E+02 0.113E+03   -.239E+01 -.144E+00 -.399E+00   -.308E-04 -.419E-04 0.167E-04
   -.122E+03 0.232E+03 -.238E+03   0.123E+03 -.234E+03 0.240E+03   -.635E+00 0.140E+01 -.156E+01   0.428E-04 -.443E-04 0.261E-04
   0.275E+03 -.237E+02 -.991E+02   -.283E+03 0.220E+02 0.990E+02   0.769E+01 0.192E+01 0.269E+00   -.133E-04 0.617E-05 -.328E-05
   0.127E+03 -.220E+03 -.263E+03   -.127E+03 0.222E+03 0.266E+03   0.466E+00 -.208E+01 -.237E+01   -.144E-04 0.469E-04 0.427E-04
   -.760E+02 -.258E+03 -.248E+03   0.768E+02 0.259E+03 0.249E+03   -.761E+00 -.176E+01 -.174E+01   -.141E-05 0.385E-04 0.353E-04
   -.161E+03 -.238E+03 -.197E+03   0.166E+03 0.243E+03 0.201E+03   -.515E+01 -.498E+01 -.406E+01   0.138E-04 -.108E-04 0.346E-05
   0.325E+03 -.330E+02 -.115E+03   -.328E+03 0.325E+02 0.116E+03   0.319E+01 0.721E+00 0.138E-01   -.598E-05 0.128E-04 0.278E-04
   0.269E+03 -.130E+03 -.208E+03   -.272E+03 0.134E+03 0.212E+03   0.335E+01 -.381E+01 -.509E+01   -.383E-04 0.132E-04 0.135E-04
   0.147E+03 0.266E+03 0.193E+03   -.151E+03 -.271E+03 -.198E+03   0.325E+01 0.529E+01 0.446E+01   0.131E-04 -.126E-04 -.296E-04
   0.242E+03 0.224E+03 0.144E+03   -.243E+03 -.225E+03 -.145E+03   0.157E+01 0.137E+01 0.976E+00   -.256E-04 -.442E-04 -.382E-04
   0.338E+03 0.963E+02 0.363E+01   -.340E+03 -.972E+02 -.407E+01   0.230E+01 0.896E+00 0.416E+00   -.414E-04 -.246E-04 0.134E-04
   0.451E+02 0.806E+02 -.636E+02   -.488E+02 -.844E+02 0.665E+02   0.363E+01 0.382E+01 -.289E+01   -.428E-05 -.217E-04 0.138E-04
   -.418E+02 0.695E+02 -.756E+02   0.442E+02 -.731E+02 0.798E+02   -.243E+01 0.362E+01 -.418E+01   0.115E-04 -.220E-04 0.173E-04
   -.993E+02 0.279E+02 -.485E+02   0.105E+03 -.276E+02 0.497E+02   -.582E+01 -.255E+00 -.125E+01   0.914E-05 -.487E-05 -.840E-06
   -.408E+02 0.149E+03 0.160E+02   0.426E+02 -.157E+03 -.127E+02   -.179E+01 0.757E+01 -.335E+01   -.273E-05 0.136E-04 0.327E-05
   0.102E+03 -.230E+02 -.526E+02   -.108E+03 0.225E+02 0.538E+02   0.592E+01 0.375E+00 -.127E+01   -.998E-05 0.450E-05 0.632E-05
   0.798E+02 0.683E+02 -.317E+02   -.857E+02 -.685E+02 0.303E+02   0.586E+01 0.149E+00 0.133E+01   -.537E-05 0.112E-05 -.526E-05
   0.266E+02 -.664E+02 0.814E+02   -.282E+02 0.701E+02 -.859E+02   0.154E+01 -.372E+01 0.449E+01   -.354E-05 0.185E-04 -.261E-04
   0.586E+01 -.110E+03 0.899E+01   -.582E+01 0.116E+03 -.793E+01   -.361E-01 -.588E+01 -.107E+01   0.856E-06 0.238E-04 -.788E-05
   -.145E+02 -.102E+03 -.341E+02   0.160E+02 0.104E+03 0.394E+02   -.155E+01 -.210E+01 -.535E+01   0.294E-06 -.448E-05 0.262E-05
   -.101E+03 0.259E+02 0.116E+03   0.108E+03 -.236E+02 -.121E+03   -.652E+01 -.228E+01 0.485E+01   -.668E-05 0.476E-05 0.108E-04
   -.915E+02 0.385E+02 -.535E+02   0.948E+02 -.418E+02 0.573E+02   -.330E+01 0.324E+01 -.376E+01   0.419E-05 -.761E-05 0.319E-05
   -.661E+02 -.714E+02 0.547E+02   0.686E+02 0.756E+02 -.582E+02   -.246E+01 -.426E+01 0.345E+01   0.152E-04 0.115E-04 -.102E-04
   0.174E+02 0.711E+02 0.886E+02   -.174E+02 -.771E+02 -.894E+02   0.452E-01 0.597E+01 0.731E+00   0.237E-05 -.987E-05 0.290E-05
   0.414E+01 0.906E+02 0.775E+02   -.533E+00 -.936E+02 -.813E+02   -.360E+01 0.302E+01 0.377E+01   0.165E-05 -.128E-05 -.523E-05
   0.603E+02 0.772E+02 0.572E+02   -.626E+02 -.815E+02 -.608E+02   0.229E+01 0.428E+01 0.358E+01   -.118E-04 -.139E-04 -.101E-04
   -.105E+03 -.197E+02 -.450E+01   0.111E+03 0.206E+02 0.496E+01   -.593E+01 -.949E+00 -.466E+00   0.253E-04 0.655E-05 -.122E-05
   -.842E+02 -.642E+02 -.382E+02   0.901E+02 0.644E+02 0.369E+02   -.595E+01 -.258E+00 0.131E+01   0.722E-06 -.722E-05 -.913E-06
   0.286E+02 0.212E+02 0.104E+03   -.301E+02 -.236E+02 -.110E+03   0.152E+01 0.241E+01 0.526E+01   -.433E-05 -.392E-05 -.267E-04
   -.456E+02 -.786E+02 -.701E+02   0.492E+02 0.824E+02 0.731E+02   -.362E+01 -.377E+01 -.307E+01   -.284E-05 0.119E-04 0.113E-04
   0.954E+02 -.329E+02 -.543E+02   -.989E+02 0.360E+02 0.580E+02   0.348E+01 -.310E+01 -.371E+01   -.539E-05 -.798E-06 0.551E-05
   0.106E+03 0.254E+02 -.228E+01   -.112E+03 -.265E+02 0.259E+01   0.593E+01 0.110E+01 -.296E+00   -.219E-04 -.122E-04 0.244E-05
   -.230E+02 -.759E+02 0.740E+02   0.196E+02 0.790E+02 -.778E+02   0.343E+01 -.318E+01 0.380E+01   -.852E-08 -.225E-05 -.532E-05
   0.432E+02 -.662E+02 -.809E+02   -.457E+02 0.696E+02 0.852E+02   0.247E+01 -.345E+01 -.433E+01   -.780E-05 0.171E-04 0.180E-04
   0.297E+02 -.139E+03 0.224E+03   -.248E+02 0.127E+03 -.210E+03   -.492E+01 0.121E+02 -.146E+02   0.234E-04 -.686E-04 0.490E-04
   0.232E+03 0.167E+03 0.655E+02   -.212E+03 -.164E+03 -.678E+02   -.205E+02 -.242E+01 0.250E+01   0.438E-04 0.205E-04 -.765E-05
   -.425E+02 0.235E+03 -.159E+03   0.342E+02 -.223E+03 0.146E+03   0.839E+01 -.114E+02 0.131E+02   0.660E-04 0.737E-04 -.773E-04
   0.257E+02 -.198E+03 -.196E+03   -.125E+02 0.188E+03 0.181E+03   -.134E+02 0.101E+02 0.150E+02   0.363E-04 -.445E-04 -.362E-04
   -.253E+03 -.950E+02 0.683E+02   0.233E+03 0.927E+02 -.700E+02   0.200E+02 0.243E+01 0.180E+01   -.500E-04 -.958E-04 0.352E-04
   -.124E+03 0.404E+03 0.422E+03   0.841E+02 -.388E+03 -.425E+03   0.395E+02 -.168E+02 0.293E+01   -.909E-05 0.586E-04 0.526E-04
   -.824E+02 0.135E+03 0.235E+03   0.812E+02 -.132E+03 -.231E+03   0.898E+00 -.266E+01 -.347E+01   0.111E-03 -.910E-04 -.453E-04
 -----------------------------------------------------------------------------------------------
   -.324E+02 0.116E+02 -.623E+01   0.156E-12 -.284E-13 0.142E-12   0.324E+02 -.116E+02 0.624E+01   0.199E-03 -.228E-03 -.156E-03
 
 
 POSITION                                       TOTAL-FORCE (eV/Angst)
 -----------------------------------------------------------------------------------
      7.96508     10.76003     12.08522        -0.321420      0.110228      0.208654
      8.75875     11.31222      6.55140        -0.007227     -0.003219     -0.006088
      9.11624     10.48468      7.61029         0.004881     -0.029012      0.005032
      9.47459     12.30603      8.99730        -0.002116     -0.003083     -0.008026
      9.11904     13.19266      7.98704         0.005094      0.014585      0.037182
      8.75715     12.69444      6.73519         0.003628     -0.014803     -0.001540
     10.46158      6.59100     13.49490        -0.005300     -0.009375      0.018228
      9.94203      7.43809     12.52376         0.000665      0.016848     -0.034138
     12.04547      8.38666     12.11872        -0.023483     -0.001596     -0.006518
     12.61928      7.55238     13.08448         0.008137      0.017123     -0.006465
     14.79299     10.57118     10.69264        -0.020714      0.018140     -0.024073
     14.01643     11.32257      9.80881         0.035373     -0.003010      0.013543
     12.65158     11.07272      9.73048        -0.063091     -0.001505     -0.006892
     12.79043      9.38554     11.34657        -0.011544      0.012768     -0.020481
     14.16878      9.59490     11.46294        -0.011641     -0.011945      0.011820
     11.82695      6.64488     13.78060        -0.025326      0.002803     -0.012093
      7.24231      9.77330     11.28348         0.256478      0.185285      0.128470
      8.15819     12.44233     13.81164        -0.056489     -0.074361     -0.071051
      9.52399     12.52132     13.53212         0.022676     -0.050845     -0.048687
     10.05904     11.71816     12.53361        -0.146555      0.064835      0.139690
      5.86694      9.53439     11.36602         0.061084      0.222199      0.199804
      7.38092     11.55121     13.07965         0.463454     -0.349690     -0.487283
      7.45796      8.11597      9.64469        -0.022023      0.021468      0.026803
      6.09730      7.83470      9.68863        -0.014652      0.010304      0.015797
      5.28440      8.55710     10.56432         0.056007     -0.015153     -0.024861
      9.79795      5.90212     14.01497        -0.001727     -0.005789      0.002146
     12.26685      5.99367     14.53463         0.001829     -0.006726      0.004653
     13.68484      7.61538     13.29576        -0.001267     -0.001669      0.001093
     10.84507      7.24677      9.22597         0.013703     -0.038585     -0.002918
      6.31582     11.46138     13.28407         0.018743     -0.107391     -0.123470
      8.88327      7.42377     12.27295        -0.003834     -0.026815      0.002263
      8.47853     13.36665      5.92453        -0.001224      0.006897     -0.000877
      9.12855     14.26265      8.19005         0.004137      0.002803     -0.001403
      9.76183     12.67176      9.98145         0.018396      0.029120     -0.018664
     11.38256      8.36174      8.29610         0.022226      0.000913     -0.029560
     14.75349      8.99278     12.15530         0.005796      0.000056     -0.000518
     14.45552     12.09620      9.18096         0.001786      0.001676     -0.006364
      9.11405      9.40258      7.49376        -0.002289     -0.001724     -0.015378
      8.12287      7.57771      8.97051         0.009013      0.014912      0.011572
      5.68876      7.06123      9.04041        -0.005529     -0.006136     -0.001774
     15.86530     10.74076     10.77851         0.002631      0.001884      0.000307
     11.11794     11.75383     12.28812        -0.039537     -0.058765     -0.055349
      8.48240     10.86572      5.59722        -0.003712     -0.001014      0.003254
     10.17895     13.19691     14.08003         0.001781      0.013316      0.008659
      5.25320     10.11370     12.05309        -0.043237     -0.015752     -0.008168
      4.21445      8.36275     10.62101         0.000110      0.017954      0.015962
     12.01813     11.63958      9.05085         0.009000      0.001190     -0.009293
      7.70887     13.05934     14.58823        -0.057982     -0.034213     -0.023891
      9.48490     10.95884      8.82805        -0.008538      0.020770     -0.114497
      8.03610      9.06122     10.42169         0.111128      0.239163      0.191406
     10.70414      8.32170     11.83465         0.108495     -0.165023      0.119623
      9.30896     10.85100     11.80824        -0.165032     -0.395883     -0.329766
     12.02768     10.13012     10.47953         0.155687      0.050914      0.002626
     10.61480      8.11252      8.84309        -0.042189      0.124079      0.141419
     10.01771      9.61740     10.38685        -0.294260      0.210848      0.190081
 -----------------------------------------------------------------------------------
    total drift:                                0.007197     -0.003255      0.003109


--------------------------------------------------------------------------------------------------------



  FREE ENERGIE OF THE ION-ELECTRON SYSTEM (eV)
  ---------------------------------------------------
  free  energy   TOTEN  =      -376.84857336 eV

  energy  without entropy=     -376.84857336  energy(sigma->0) =     -376.84857336
 


--------------------------------------------------------------------------------------------------------


    POTLOK:  cpu time    7.48: real time    7.50


--------------------------------------------------------------------------------------------------------


 writing wavefunctions
     LOOP+:  cpu time 1039.04: real time 1079.20
    4ORBIT:  cpu time    0.00: real time    0.00

 total amount of memory used by VASP on root node   877132. kBytes
========================================================================

   base      :      30000. kBytes
   nonlr-proj:      19361. kBytes
   fftplans  :     269516. kBytes
   grid      :     534988. kBytes
   one-center:       1710. kBytes
   wavefun   :      21557. kBytes
 
  
  
 General timing and accounting informations for this job:
 ========================================================
  
                  Total CPU time used (sec):     1297.199
                            User time (sec):     1143.589
                          System time (sec):      153.610
                         Elapsed time (sec):     1340.653
  
                   Maximum memory used (kb):     1490152.
                   Average memory used (kb):           0.
  
                          Minor page faults:      7042094
                          Major page faults:            2
                 Voluntary context switches:       284623
