<?xml version="1.0" encoding="ISO-8859-1"?>
<modeling>
 <generator>
  <i name="program" type="string">vasp </i>
  <i name="version" type="string">5.3.5  </i>
  <i name="subversion" type="string">31Mar14 (build Apr 08 2014 12:00:03) complex                          parallel </i>
  <i name="platform" type="string">NSC-NSCPATCH-BUILD02 </i>
  <i name="date" type="string">2017 03 15 </i>
  <i name="time" type="string">18:57:23 </i>
 </generator>
 <incar>
  <i type="string" name="SYSTEM"> c2_oh2_ruthenium_mol</i>
  <i type="int" name="ISTART">     0</i>
  <i type="string" name="PREC">accurate</i>
  <i type="int" name="IALGO">    38</i>
  <i type="logical" name="ADDGRID"> T  </i>
  <i type="int" name="ISPIN">     2</i>
  <i name="BMIX">      2.00000000</i>
  <i type="int" name="ICHARG">     2</i>
  <i name="EDIFF">      0.00001000</i>
  <i name="EDIFFG">     -0.01000000</i>
  <i name="ENCUT">    700.00000000</i>
  <i name="POTIM">      0.50000000</i>
  <i name="NUPDOWN">      0.00000000</i>
  <i name="NELECT">    166.00000000</i>
  <i type="string" name="LREAL"> Auto</i>
  <i name="TIME">      0.05000000</i>
  <i type="int" name="ISMEAR">     0</i>
  <i name="SIGMA">      0.01000000</i>
  <i type="int" name="ICORELEVEL">     2</i>
  <i type="int" name="CLNT">     1</i>
  <i type="int" name="CLN">     1</i>
  <i type="int" name="INCAR     ">     0</i>
  <i name="CLZ">      0.50000000</i>
 </incar>
 <kpoints>
  <generation param="Monkhorst-Pack">
   <v type="int" name="divisions">       1        1        1 </v>
   <v name="usershift">      0.00000000       0.00000000       0.00000000 </v>
   <v name="genvec1">      1.00000000       0.00000000       0.00000000 </v>
   <v name="genvec2">      0.00000000       1.00000000       0.00000000 </v>
   <v name="genvec3">      0.00000000       0.00000000       1.00000000 </v>
   <v name="shift">      0.00000000       0.00000000       0.00000000 </v>
  </generation>
  <varray name="kpointlist" >
   <v>       0.00000000       0.00000000       0.00000000 </v>
  </varray>
  <varray name="weights" >
   <v>       1.00000000 </v>
  </varray>
 </kpoints>
 <parameters>
  <separator name="general" >
   <i type="string" name="SYSTEM">c2_oh2_ruthenium_mol</i>
   <i type="logical" name="LCOMPAT"> F  </i>
  </separator>
  <separator name="electronic" >
   <i type="string" name="PREC">accura</i>
   <i name="ENMAX">    700.00000000</i>
   <i name="ENAUG">    946.76800000</i>
   <i name="EDIFF">      0.00001000</i>
   <i type="int" name="IALGO">    38</i>
   <i type="int" name="IWAVPR">    10</i>
   <i type="int" name="NBANDS">   128</i>
   <i name="NELECT">    166.00000000</i>
   <i type="int" name="TURBO">     0</i>
   <i type="int" name="IRESTART">     0</i>
   <i type="int" name="NREBOOT">     0</i>
   <i type="int" name="NMIN">     0</i>
   <i name="EREF">      0.00000000</i>
   <separator name="electronic smearing" >
    <i type="int" name="ISMEAR">     0</i>
    <i name="SIGMA">      0.01000000</i>
    <i name="KSPACING">      0.50000000</i>
    <i type="logical" name="KGAMMA"> T  </i>
   </separator>
   <separator name="electronic projectors" >
    <i type="logical" name="LREAL"> T  </i>
    <v name="ROPT">     -0.00025000     -0.00025000     -0.00025000     -0.00025000     -0.00025000     -0.00025000</v>
    <i type="int" name="LMAXPAW">  -100</i>
    <i type="int" name="LMAXMIX">     2</i>
    <i type="logical" name="NLSPLINE"> F  </i>
   </separator>
   <separator name="electronic startup" >
    <i type="int" name="ISTART">     0</i>
    <i type="int" name="ICHARG">     2</i>
    <i type="int" name="INIWAV">     1</i>
   </separator>
   <separator name="electronic spin" >
    <i type="int" name="ISPIN">     2</i>
    <i type="logical" name="LNONCOLLINEAR"> F  </i>
    <v name="MAGMOM">      0.00000000      0.00000000      0.00000000      0.00000000      0.00000000      0.00000000      0.00000000      0.00000000      0.00000000      0.00000000      0.00000000      0.00000000      0.00000000      0.00000000      0.00000000      0.00000000      0.00000000      0.00000000      0.00000000      0.00000000
      0.00000000      0.00000000      0.00000000      0.00000000      0.00000000      0.00000000      0.00000000      0.00000000      0.00000000      0.00000000      0.00000000      0.00000000      0.00000000      0.00000000      0.00000000      0.00000000      0.00000000      0.00000000      0.00000000      0.00000000
      0.00000000      0.00000000      0.00000000      0.00000000      0.00000000      0.00000000      0.00000000      0.00000000      0.00000000      0.00000000      0.00000000      0.00000000      0.00000000      0.00000000      0.00000000</v>
    <i name="NUPDOWN">      0.00000000</i>
    <i type="logical" name="LSORBIT"> F  </i>
    <v name="SAXIS">      0.00000000      0.00000000      1.00000000</v>
    <i type="logical" name="LSPIRAL"> F  </i>
    <v name="QSPIRAL">      0.00000000      0.00000000      0.00000000</v>
    <i type="logical" name="LZEROZ"> F  </i>
   </separator>
   <separator name="electronic exchange-correlation" >
    <i type="logical" name="LASPH"> F  </i>
    <i type="logical" name="LMETAGGA"> F  </i>
   </separator>
   <separator name="electronic convergence" >
    <i type="int" name="NELM">    60</i>
    <i type="int" name="NELMDL">    -5</i>
    <i type="int" name="NELMIN">     2</i>
    <i name="ENINI">    700.00000000</i>
    <separator name="electronic convergence detail" >
     <i type="logical" name="LDIAG"> T  </i>
     <i type="logical" name="LSUBROT"> F  </i>
     <i name="WEIMIN">      0.00000000</i>
     <i name="EBREAK">      0.00000002</i>
     <i name="DEPER">      0.30000000</i>
     <i type="int" name="NRMM">     4</i>
     <i name="TIME">      0.05000000</i>
    </separator>
   </separator>
   <separator name="electronic mixer" >
    <i name="AMIX">      0.40000000</i>
    <i name="BMIX">      2.00000000</i>
    <i name="AMIN">      0.10000000</i>
    <i name="AMIX_MAG">      1.60000000</i>
    <i name="BMIX_MAG">      2.00000000</i>
    <separator name="electronic mixer details" >
     <i type="int" name="IMIX">     4</i>
     <i type="int" name="MAXMIX">   -45</i>
     <i name="WC">    100.00000000</i>
     <i type="int" name="INIMIX">     1</i>
     <i type="int" name="MIXPRE">     1</i>
     <i type="int" name="MREMOVE">     5</i>
    </separator>
   </separator>
   <separator name="electronic dipolcorrection" >
    <i type="logical" name="LDIPOL"> F  </i>
    <i type="logical" name="LMONO"> F  </i>
    <i type="int" name="IDIPOL">     0</i>
    <i name="EPSILON">      1.00000000</i>
    <v name="DIPOL">   -100.00000000   -100.00000000   -100.00000000</v>
    <i name="EFIELD">      0.00000000</i>
   </separator>
  </separator>
  <separator name="grids" >
   <i type="int" name="NGX">   180</i>
   <i type="int" name="NGY">   180</i>
   <i type="int" name="NGZ">   180</i>
   <i type="int" name="NGXF">   360</i>
   <i type="int" name="NGYF">   360</i>
   <i type="int" name="NGZF">   360</i>
   <i type="logical" name="ADDGRID"> T  </i>
  </separator>
  <separator name="ionic" >
   <i type="int" name="NSW">     0</i>
   <i type="int" name="IBRION">    -1</i>
   <i type="int" name="ISIF">     2</i>
   <i name="PSTRESS">      0.00000000</i>
   <i name="EDIFFG">     -0.01000000</i>
   <i type="int" name="NFREE">     0</i>
   <i name="POTIM">      0.50000000</i>
   <i name="SMASS">     -3.00000000</i>
   <i name="SCALEE">      1.00000000</i>
  </separator>
  <separator name="ionic md" >
   <i name="TEBEG">      0.00010000</i>
   <i name="TEEND">      0.00010000</i>
   <i type="int" name="NBLOCK">     1</i>
   <i type="int" name="KBLOCK">     1</i>
   <i type="int" name="NPACO">   256</i>
   <i name="APACO">     16.00000000</i>
  </separator>
  <separator name="symmetry" >
   <i type="int" name="ISYM">     2</i>
   <i name="SYMPREC">      0.00001000</i>
  </separator>
  <separator name="dos" >
   <i type="logical" name="LORBIT"> F  </i>
   <v name="RWIGS">     -1.00000000     -1.00000000     -1.00000000     -1.00000000     -1.00000000     -1.00000000</v>
   <i type="int" name="NEDOS">   301</i>
   <i name="EMIN">     10.00000000</i>
   <i name="EMAX">    -10.00000000</i>
   <i name="EFERMI">      0.00000000</i>
  </separator>
  <separator name="writing" >
   <i type="int" name="NWRITE">     2</i>
   <i type="logical" name="LWAVE"> T  </i>
   <i type="logical" name="LCHARG"> T  </i>
   <i type="logical" name="LPARD"> F  </i>
   <i type="logical" name="LVTOT"> F  </i>
   <i type="logical" name="LVHAR"> F  </i>
   <i type="logical" name="LELF"> F  </i>
   <i type="logical" name="LOPTICS"> F  </i>
   <v name="STM">      0.00000000      0.00000000      0.00000000      0.00000000      0.00000000      0.00000000      0.00000000</v>
  </separator>
  <separator name="performance" >
   <i type="int" name="NPAR">    64</i>
   <i type="int" name="NSIM">     4</i>
   <i type="int" name="NBLK">    -1</i>
   <i type="logical" name="LPLANE"> T  </i>
   <i type="logical" name="LSCALAPACK"> T  </i>
   <i type="logical" name="LSCAAWARE"> F  </i>
   <i type="logical" name="LSCALU"> F  </i>
   <i type="logical" name="LASYNC"> F  </i>
   <i type="logical" name="LORBITALREAL"> F  </i>
  </separator>
  <separator name="miscellaneous" >
   <i type="int" name="IDIOT">     3</i>
   <i type="logical" name="LMUSIC"> F  </i>
   <v name="POMASS">     12.01100000     12.01100000      1.00000000     14.00100000     16.00000000    101.07000000</v>
   <v name="DARWINR">      0.00000000      0.00000000      0.00000000      0.00000000      0.00000000      0.00000000</v>
   <v name="DARWINV">      1.00000000      1.00000000      1.00000000      1.00000000      1.00000000      1.00000000</v>
   <i type="logical" name="LCORR"> T  </i>
  </separator>
  <i type="logical" name="GGA_COMPAT"> T  </i>
  <i type="logical" name="LBERRY"> F  </i>
  <i type="int" name="ICORELEVEL">     2</i>
  <i type="int" name="CLNT">     1</i>
  <i type="int" name="CLN">     1</i>
  <i type="int" name="CLL">     0</i>
  <i name="CLZ">      0.50000000</i>
  <i type="logical" name="LDAU"> F  </i>
  <i type="int" name="I_CONSTRAINED_M">     0</i>
  <separator name="electronic exchange-correlation" >
   <i type="string" name="GGA">--</i>
   <i type="int" name="VOSKOWN">     0</i>
   <i type="logical" name="LHFCALC"> F  </i>
   <i type="string" name="PRECFOCK"></i>
   <i type="logical" name="LSYMGRAD"> F  </i>
   <i type="logical" name="LHFONE"> F  </i>
   <i type="logical" name="LRHFCALC"> F  </i>
   <i type="logical" name="LTHOMAS"> F  </i>
   <i type="logical" name="LMODELHF"> F  </i>
   <i name="ENCUT4O">     -1.00000000</i>
   <i type="int" name="EXXOEP">     0</i>
   <i type="int" name="FOURORBIT">     0</i>
   <i name="AEXX">      0.00000000</i>
   <i name="HFALPHA">      0.00000000</i>
   <i name="MCALPHA">      0.00000000</i>
   <i name="ALDAX">      1.00000000</i>
   <i name="AGGAX">      1.00000000</i>
   <i name="ALDAC">      1.00000000</i>
   <i name="AGGAC">      1.00000000</i>
   <i type="int" name="NKREDX">     1</i>
   <i type="int" name="NKREDY">     1</i>
   <i type="int" name="NKREDZ">     1</i>
   <i type="logical" name="SHIFTRED"> F  </i>
   <i type="logical" name="ODDONLY"> F  </i>
   <i type="logical" name="EVENONLY"> F  </i>
   <i type="int" name="LMAXFOCK">     0</i>
   <i type="int" name="NMAXFOCKAE">     0</i>
   <i type="logical" name="LFOCKAEDFT"> F  </i>
   <i name="HFSCREEN">      0.00000000</i>
   <i name="HFSCREENC">      0.00000000</i>
   <i type="int" name="NBANDSGWLOW">     0</i>
  </separator>
  <separator name="vdW DFT" >
   <i type="logical" name="LUSE_VDW"> F  </i>
   <i name="Zab_VDW">     -0.84910000</i>
   <i name="PARAM1">      0.12340000</i>
   <i name="PARAM2">      1.00000000</i>
   <i name="PARAM3">      0.00000000</i>
  </separator>
  <separator name="model GW" >
   <i type="int" name="MODEL_GW">     0</i>
   <i name="MODEL_EPS0">     87.27272727</i>
   <i name="MODEL_ALPHA">      1.00000000</i>
  </separator>
  <separator name="linear response parameters" >
   <i type="logical" name="LEPSILON"> F  </i>
   <i type="logical" name="LRPA"> F  </i>
   <i type="logical" name="LNABLA"> F  </i>
   <i type="logical" name="LVEL"> F  </i>
   <i type="int" name="KINTER">     0</i>
   <i name="CSHIFT">      0.10000000</i>
   <i name="OMEGAMAX">     -1.00000000</i>
   <i name="DEG_THRESHOLD">      0.00200000</i>
  </separator>
  <separator name="orbital magnetization" >
   <i type="logical" name="NUCIND"> F  </i>
   <v name="MAGPOS">      0.00000000      0.00000000      0.00000000</v>
   <i type="logical" name="LNICSALL"> T  </i>
   <i type="logical" name="ORBITALMAG"> F  </i>
   <i type="logical" name="LMAGBLOCH"> F  </i>
   <i type="logical" name="LCHIMAG"> F  </i>
   <i type="logical" name="LGAUGE"> T  </i>
   <i type="int" name="MAGATOM">     0</i>
   <v name="MAGDIPOL">      0.00000000      0.00000000      0.00000000</v>
   <v name="AVECCONST">      0.00000000      0.00000000      0.00000000</v>
  </separator>
  <separator name="response functions" >
   <i type="logical" name="LADDER"> F  </i>
   <i type="logical" name="LFXC"> F  </i>
   <i type="logical" name="LHARTREE"> T  </i>
   <i type="int" name="IBSE">     0</i>
   <i type="logical" name="LTCTE"> F  </i>
   <i type="logical" name="LTETE"> F  </i>
   <i type="logical" name="LTRIPLET"> F  </i>
   <i type="logical" name="LFXCEPS"> F  </i>
   <i type="logical" name="LFXHEG"> F  </i>
   <i type="logical" name="L2ORDER"> F  </i>
   <i type="logical" name="LUSEW"> F  </i>
   <i name="ENCUTGW">     -2.00000000</i>
   <i name="ENCUTGWSOFT">     -2.00000000</i>
   <i name="ENCUTLF">     -1.00000000</i>
   <i type="int" name="LMAXMP2">    -1</i>
   <i name="SCISSOR">      0.00000000</i>
   <i type="int" name="NOMEGA">     0</i>
   <i type="int" name="NOMEGAR">     0</i>
   <i type="int" name="NBANDSGW">    -1</i>
   <i type="int" name="NBANDSO">    -1</i>
   <i type="int" name="NBANDSV">    -1</i>
   <i type="int" name="NELM">     1</i>
   <i type="int" name="DIM">     3</i>
   <i type="int" name="ANTIRES">     0</i>
   <i name="OMEGAMAX">    -30.00000000</i>
   <i name="OMEGAMIN">    -30.00000000</i>
   <i name="OMEGATL">   -200.00000000</i>
   <i type="int" name="OMEGAGRID">     0</i>
   <i name="CSHIFT">     -0.10000000</i>
   <i type="logical" name="SELFENERGY"> F  </i>
   <i type="logical" name="LSPECTRAL"> F  </i>
   <i type="logical" name="ODDONLYGW"> F  </i>
   <i type="logical" name="EVENONLYGW"> F  </i>
   <i type="int" name="NKREDLFX">     1</i>
   <i type="int" name="NKREDLFY">     1</i>
   <i type="int" name="NKREDLFZ">     1</i>
   <i type="int" name="MAXMEM">  1800</i>
   <i type="int" name="TELESCOPE">     0</i>
   <i type="int" name="TAUPAR">     1</i>
  </separator>
  <separator name="External order field" >
   <i name="OFIELD_KAPPA">      0.00000000</i>
   <v name="OFIELD_K">      0.00000000      0.00000000      0.00000000</v>
   <i name="OFIELD_Q6_NEAR">      0.00000000</i>
   <i name="OFIELD_Q6_FAR">      0.00000000</i>
   <i name="OFIELD_A">      0.00000000</i>
  </separator>
 </parameters>
 <atominfo>
  <atoms>      55 </atoms>
  <types>       6 </types>
  <array name="atoms" >
   <dimension dim="1">ion</dimension>
   <field type="string">element</field>
   <field type="int">atomtype</field>
   <set>
    <rc><c>C </c><c>   1</c></rc>
    <rc><c>C </c><c>   2</c></rc>
    <rc><c>C </c><c>   2</c></rc>
    <rc><c>C </c><c>   2</c></rc>
    <rc><c>C </c><c>   2</c></rc>
    <rc><c>C </c><c>   2</c></rc>
    <rc><c>C </c><c>   2</c></rc>
    <rc><c>C </c><c>   2</c></rc>
    <rc><c>C </c><c>   2</c></rc>
    <rc><c>C </c><c>   2</c></rc>
    <rc><c>C </c><c>   2</c></rc>
    <rc><c>C </c><c>   2</c></rc>
    <rc><c>C </c><c>   2</c></rc>
    <rc><c>C </c><c>   2</c></rc>
    <rc><c>C </c><c>   2</c></rc>
    <rc><c>C </c><c>   2</c></rc>
    <rc><c>C </c><c>   2</c></rc>
    <rc><c>C </c><c>   2</c></rc>
    <rc><c>C </c><c>   2</c></rc>
    <rc><c>C </c><c>   2</c></rc>
    <rc><c>C </c><c>   2</c></rc>
    <rc><c>C </c><c>   2</c></rc>
    <rc><c>C </c><c>   2</c></rc>
    <rc><c>C </c><c>   2</c></rc>
    <rc><c>C </c><c>   2</c></rc>
    <rc><c>H </c><c>   3</c></rc>
    <rc><c>H </c><c>   3</c></rc>
    <rc><c>H </c><c>   3</c></rc>
    <rc><c>H </c><c>   3</c></rc>
    <rc><c>H </c><c>   3</c></rc>
    <rc><c>H </c><c>   3</c></rc>
    <rc><c>H </c><c>   3</c></rc>
    <rc><c>H </c><c>   3</c></rc>
    <rc><c>H </c><c>   3</c></rc>
    <rc><c>H </c><c>   3</c></rc>
    <rc><c>H </c><c>   3</c></rc>
    <rc><c>H </c><c>   3</c></rc>
    <rc><c>H </c><c>   3</c></rc>
    <rc><c>H </c><c>   3</c></rc>
    <rc><c>H </c><c>   3</c></rc>
    <rc><c>H </c><c>   3</c></rc>
    <rc><c>H </c><c>   3</c></rc>
    <rc><c>H </c><c>   3</c></rc>
    <rc><c>H </c><c>   3</c></rc>
    <rc><c>H </c><c>   3</c></rc>
    <rc><c>H </c><c>   3</c></rc>
    <rc><c>H </c><c>   3</c></rc>
    <rc><c>H </c><c>   3</c></rc>
    <rc><c>N </c><c>   4</c></rc>
    <rc><c>N </c><c>   4</c></rc>
    <rc><c>N </c><c>   4</c></rc>
    <rc><c>N </c><c>   4</c></rc>
    <rc><c>N </c><c>   4</c></rc>
    <rc><c>O </c><c>   5</c></rc>
    <rc><c>Ru</c><c>   6</c></rc>
   </set>
  </array>
  <array name="atomtypes" >
   <dimension dim="1">type</dimension>
   <field type="int">atomspertype</field>
   <field type="string">element</field>
   <field>mass</field>
   <field>valence</field>
   <field type="string">pseudopotential</field>
   <set>
    <rc><c>   1</c><c>C </c><c>     12.01100000</c><c>      4.50000000</c><c>  PAW_PBE C_h 06Feb2004                 </c></rc>
    <rc><c>  24</c><c>C </c><c>     12.01100000</c><c>      4.00000000</c><c>  PAW_PBE C_h 06Feb2004                 </c></rc>
    <rc><c>  23</c><c>H </c><c>      1.00000000</c><c>      1.00000000</c><c>  PAW_PBE H 15Jun2001                   </c></rc>
    <rc><c>   5</c><c>N </c><c>     14.00100000</c><c>      5.00000000</c><c>  PAW_PBE N_h 06Feb2004                 </c></rc>
    <rc><c>   1</c><c>O </c><c>     16.00000000</c><c>      6.00000000</c><c>  PAW_PBE O_h 06Feb2004                 </c></rc>
    <rc><c>   1</c><c>Ru</c><c>    101.07000000</c><c>     14.00000000</c><c>  PAW_PBE Ru_pv 28Jan2005               </c></rc>
   </set>
  </array>
 </atominfo>
 <structure name="initialpos" >
  <crystal>
   <varray name="basis" >
    <v>      20.00000000       0.00000000       0.00000000 </v>
    <v>       0.00000000      20.00000000       0.00000000 </v>
    <v>       0.00000000       0.00000000      20.00000000 </v>
   </varray>
   <i name="volume">   8000.00000000 </i>
   <varray name="rec_basis" >
    <v>       0.05000000       0.00000000       0.00000000 </v>
    <v>       0.00000000       0.05000000       0.00000000 </v>
    <v>       0.00000000       0.00000000       0.05000000 </v>
   </varray>
  </crystal>
  <varray name="positions" >
   <v>       0.39825425       0.53800137       0.60426081 </v>
   <v>       0.43793752       0.56561110       0.32757008 </v>
   <v>       0.45581208       0.52423376       0.38051465 </v>
   <v>       0.47372925       0.61530131       0.44986522 </v>
   <v>       0.45595175       0.65963312       0.39935201 </v>
   <v>       0.43785737       0.63472201       0.33675972 </v>
   <v>       0.52307882       0.32955005       0.67474498 </v>
   <v>       0.49710163       0.37190466       0.62618823 </v>
   <v>       0.60227374       0.41933300       0.60593616 </v>
   <v>       0.63096398       0.37761922       0.65422416 </v>
   <v>       0.73964927       0.52855915       0.53463181 </v>
   <v>       0.70082162       0.56612858       0.49044049 </v>
   <v>       0.63257913       0.55363620       0.48652424 </v>
   <v>       0.63952130       0.46927713       0.56732841 </v>
   <v>       0.70843899       0.47974495       0.57314689 </v>
   <v>       0.59134754       0.33224398       0.68903016 </v>
   <v>       0.36211554       0.48866484       0.56417415 </v>
   <v>       0.40790931       0.62211625       0.69058213 </v>
   <v>       0.47619960       0.62606623       0.67660612 </v>
   <v>       0.50295190       0.58590820       0.62668073 </v>
   <v>       0.29334713       0.47671938       0.56830116 </v>
   <v>       0.36904589       0.57756069       0.65398228 </v>
   <v>       0.37289802       0.40579857       0.48223443 </v>
   <v>       0.30486503       0.39173492       0.48443166 </v>
   <v>       0.26422003       0.42785518       0.52821594 </v>
   <v>       0.48989745       0.29510618       0.70074864 </v>
   <v>       0.61334240       0.29968355       0.72673159 </v>
   <v>       0.68424189       0.38076917       0.66478776 </v>
   <v>       0.54225374       0.36233861       0.46129841 </v>
   <v>       0.31579090       0.57306911       0.66420366 </v>
   <v>       0.44416348       0.37118871       0.61364770 </v>
   <v>       0.42392665       0.66833230       0.29622671 </v>
   <v>       0.45642762       0.71313270       0.40950260 </v>
   <v>       0.48809132       0.63358802       0.49907234 </v>
   <v>       0.56912778       0.41808713       0.41480476 </v>
   <v>       0.73767440       0.44963919       0.60776512 </v>
   <v>       0.72277620       0.60481012       0.45904817 </v>
   <v>       0.45570253       0.47012894       0.37468790 </v>
   <v>       0.40614333       0.37888556       0.44852541 </v>
   <v>       0.28443799       0.35306162       0.45202062 </v>
   <v>       0.79326502       0.53703787       0.53892527 </v>
   <v>       0.55589708       0.58769132       0.61440612 </v>
   <v>       0.42412006       0.54328620       0.27986105 </v>
   <v>       0.50894741       0.65984570       0.70400156 </v>
   <v>       0.26265982       0.50568523       0.60265428 </v>
   <v>       0.21072272       0.41813760       0.53105039 </v>
   <v>       0.60090654       0.58197914       0.45254259 </v>
   <v>       0.38544357       0.65296704       0.72941133 </v>
   <v>       0.47424490       0.54794204       0.44140236 </v>
   <v>       0.40180479       0.45306079       0.52108436 </v>
   <v>       0.53520702       0.41608490       0.59173240 </v>
   <v>       0.46544808       0.54254992       0.59041194 </v>
   <v>       0.60138410       0.50650621       0.52397638 </v>
   <v>       0.53073984       0.40562607       0.44215451 </v>
   <v>       0.50088568       0.48087016       0.51934246 </v>
  </varray>
  <varray name="selective"  type="logical" >
   <v type="logical" >  T  T  T </v>
   <v type="logical" >  T  T  T </v>
   <v type="logical" >  T  T  T </v>
   <v type="logical" >  T  T  T </v>
   <v type="logical" >  T  T  T </v>
   <v type="logical" >  T  T  T </v>
   <v type="logical" >  T  T  T </v>
   <v type="logical" >  T  T  T </v>
   <v type="logical" >  T  T  T </v>
   <v type="logical" >  T  T  T </v>
   <v type="logical" >  T  T  T </v>
   <v type="logical" >  T  T  T </v>
   <v type="logical" >  T  T  T </v>
   <v type="logical" >  T  T  T </v>
   <v type="logical" >  T  T  T </v>
   <v type="logical" >  T  T  T </v>
   <v type="logical" >  T  T  T </v>
   <v type="logical" >  T  T  T </v>
   <v type="logical" >  T  T  T </v>
   <v type="logical" >  T  T  T </v>
   <v type="logical" >  T  T  T </v>
   <v type="logical" >  T  T  T </v>
   <v type="logical" >  T  T  T </v>
   <v type="logical" >  T  T  T </v>
   <v type="logical" >  T  T  T </v>
   <v type="logical" >  T  T  T </v>
   <v type="logical" >  T  T  T </v>
   <v type="logical" >  T  T  T </v>
   <v type="logical" >  T  T  T </v>
   <v type="logical" >  T  T  T </v>
   <v type="logical" >  T  T  T </v>
   <v type="logical" >  T  T  T </v>
   <v type="logical" >  T  T  T </v>
   <v type="logical" >  T  T  T </v>
   <v type="logical" >  T  T  T </v>
   <v type="logical" >  T  T  T </v>
   <v type="logical" >  T  T  T </v>
   <v type="logical" >  T  T  T </v>
   <v type="logical" >  T  T  T </v>
   <v type="logical" >  T  T  T </v>
   <v type="logical" >  T  T  T </v>
   <v type="logical" >  T  T  T </v>
   <v type="logical" >  T  T  T </v>
   <v type="logical" >  T  T  T </v>
   <v type="logical" >  T  T  T </v>
   <v type="logical" >  T  T  T </v>
   <v type="logical" >  T  T  T </v>
   <v type="logical" >  T  T  T </v>
   <v type="logical" >  T  T  T </v>
   <v type="logical" >  T  T  T </v>
   <v type="logical" >  T  T  T </v>
   <v type="logical" >  T  T  T </v>
   <v type="logical" >  T  T  T </v>
   <v type="logical" >  T  T  T </v>
   <v type="logical" >  T  T  T </v>
  </varray>
  <nose>
   <v>      -3.00000000       0.00000000       0.00010000       0.00010000 </v>
  </nose>
 </structure>
 <calculation>
  <scstep>
   <time name="dav">   14.81   15.72</time>
   <time name="total">   22.39   23.34</time>
   <energy>
    <i name="alphaZ">     12.91687988 </i>
    <i name="ewald">  23341.34424647 </i>
    <i name="hartreedc"> -28943.03694826 </i>
    <i name="XCdc">    401.01655884 </i>
    <i name="pawpsdc">   5890.45591622 </i>
    <i name="pawaedc">  -5710.10246236 </i>
    <i name="eentropy">     -0.00000212 </i>
    <i name="bandstr">  -1675.51576923 </i>
    <i name="atom">   7593.39991119 </i>
    <i name="e_fr_energy">    910.47833064 </i>
    <i name="e_wo_entrp">    910.47833276 </i>
    <i name="e_0_energy">    910.47833170 </i>
   </energy>
  </scstep>
  <scstep>
   <time name="dav">   19.26   20.29</time>
   <time name="total">   19.27   20.30</time>
   <energy>
    <i name="e_fr_energy">    -69.76385388 </i>
    <i name="e_wo_entrp">    -69.76385388 </i>
    <i name="e_0_energy">    -69.76385388 </i>
   </energy>
  </scstep>
  <scstep>
   <time name="dav">   14.94   15.84</time>
   <time name="total">   14.95   15.85</time>
   <energy>
    <i name="e_fr_energy">   -390.53370041 </i>
    <i name="e_wo_entrp">   -390.53370041 </i>
    <i name="e_0_energy">   -390.53370041 </i>
   </energy>
  </scstep>
  <scstep>
   <time name="dav">   14.89   15.76</time>
   <time name="total">   14.90   15.77</time>
   <energy>
    <i name="e_fr_energy">   -410.61186483 </i>
    <i name="e_wo_entrp">   -410.61186483 </i>
    <i name="e_0_energy">   -410.61186483 </i>
   </energy>
  </scstep>
  <scstep>
   <time name="dav">   16.00   16.94</time>
   <time name="total">   21.33   22.43</time>
   <energy>
    <i name="e_fr_energy">   -410.85378584 </i>
    <i name="e_wo_entrp">   -410.85378584 </i>
    <i name="e_0_energy">   -410.85378584 </i>
   </energy>
  </scstep>
  <scstep>
   <time name="dav">   12.89   13.63</time>
   <time name="total">   25.73   26.51</time>
   <energy>
    <i name="e_fr_energy">   -392.02043478 </i>
    <i name="e_wo_entrp">   -392.02043478 </i>
    <i name="e_0_energy">   -392.02043478 </i>
   </energy>
  </scstep>
  <scstep>
   <time name="dav">   15.07   16.34</time>
   <time name="total">   27.93   29.28</time>
   <energy>
    <i name="e_fr_energy">   -382.04561567 </i>
    <i name="e_wo_entrp">   -382.04561567 </i>
    <i name="e_0_energy">   -382.04561567 </i>
   </energy>
  </scstep>
  <scstep>
   <time name="dav">   15.13   16.38</time>
   <time name="total">   27.87   29.16</time>
   <energy>
    <i name="e_fr_energy">   -378.12703668 </i>
    <i name="e_wo_entrp">   -378.12703668 </i>
    <i name="e_0_energy">   -378.12703668 </i>
   </energy>
  </scstep>
  <scstep>
   <time name="dav">   15.06   16.36</time>
   <time name="total">   27.72   29.29</time>
   <energy>
    <i name="e_fr_energy">   -377.08225382 </i>
    <i name="e_wo_entrp">   -377.08225382 </i>
    <i name="e_0_energy">   -377.08225382 </i>
   </energy>
  </scstep>
  <scstep>
   <time name="dav">   15.17   16.42</time>
   <time name="total">   27.95   29.24</time>
   <energy>
    <i name="e_fr_energy">   -377.05968005 </i>
    <i name="e_wo_entrp">   -377.05968005 </i>
    <i name="e_0_energy">   -377.05968005 </i>
   </energy>
  </scstep>
  <scstep>
   <time name="dav">   15.04   16.32</time>
   <time name="total">   27.94   29.26</time>
   <energy>
    <i name="e_fr_energy">   -376.92218980 </i>
    <i name="e_wo_entrp">   -376.92218980 </i>
    <i name="e_0_energy">   -376.92218980 </i>
   </energy>
  </scstep>
  <scstep>
   <time name="dav">   15.17   16.45</time>
   <time name="total">   27.82   29.30</time>
   <energy>
    <i name="e_fr_energy">   -376.84691205 </i>
    <i name="e_wo_entrp">   -376.84691205 </i>
    <i name="e_0_energy">   -376.84691205 </i>
   </energy>
  </scstep>
  <scstep>
   <time name="dav">   15.07   16.32</time>
   <time name="total">   27.87   29.16</time>
   <energy>
    <i name="e_fr_energy">   -376.82753447 </i>
    <i name="e_wo_entrp">   -376.82753447 </i>
    <i name="e_0_energy">   -376.82753447 </i>
   </energy>
  </scstep>
  <scstep>
   <time name="dav">   15.18   16.44</time>
   <time name="total">   28.04   29.33</time>
   <energy>
    <i name="e_fr_energy">   -376.81645767 </i>
    <i name="e_wo_entrp">   -376.81645767 </i>
    <i name="e_0_energy">   -376.81645767 </i>
   </energy>
  </scstep>
  <scstep>
   <time name="dav">   15.03   16.32</time>
   <time name="total">   27.81   29.14</time>
   <energy>
    <i name="e_fr_energy">   -376.81837473 </i>
    <i name="e_wo_entrp">   -376.81837473 </i>
    <i name="e_0_energy">   -376.81837473 </i>
   </energy>
  </scstep>
  <scstep>
   <time name="dav">   15.23   16.52</time>
   <time name="total">   28.30   29.62</time>
   <energy>
    <i name="e_fr_energy">   -376.82515422 </i>
    <i name="e_wo_entrp">   -376.82515422 </i>
    <i name="e_0_energy">   -376.82515422 </i>
   </energy>
  </scstep>
  <scstep>
   <time name="dav">   15.06   16.32</time>
   <time name="total">   27.90   29.20</time>
   <energy>
    <i name="e_fr_energy">   -376.83167400 </i>
    <i name="e_wo_entrp">   -376.83167400 </i>
    <i name="e_0_energy">   -376.83167400 </i>
   </energy>
  </scstep>
  <scstep>
   <time name="dav">   15.05   16.32</time>
   <time name="total">   28.20   29.51</time>
   <energy>
    <i name="e_fr_energy">   -376.83695220 </i>
    <i name="e_wo_entrp">   -376.83695220 </i>
    <i name="e_0_energy">   -376.83695220 </i>
   </energy>
  </scstep>
  <scstep>
   <time name="dav">   15.02   16.46</time>
   <time name="total">   27.87   29.34</time>
   <energy>
    <i name="e_fr_energy">   -376.84096072 </i>
    <i name="e_wo_entrp">   -376.84096072 </i>
    <i name="e_0_energy">   -376.84096072 </i>
   </energy>
  </scstep>
  <scstep>
   <time name="dav">   15.07   16.32</time>
   <time name="total">   28.04   29.32</time>
   <energy>
    <i name="e_fr_energy">   -376.84376648 </i>
    <i name="e_wo_entrp">   -376.84376648 </i>
    <i name="e_0_energy">   -376.84376648 </i>
   </energy>
  </scstep>
  <scstep>
   <time name="dav">   15.06   16.33</time>
   <time name="total">   27.98   29.28</time>
   <energy>
    <i name="e_fr_energy">   -376.84562072 </i>
    <i name="e_wo_entrp">   -376.84562072 </i>
    <i name="e_0_energy">   -376.84562072 </i>
   </energy>
  </scstep>
  <scstep>
   <time name="dav">   15.04   16.30</time>
   <time name="total">   28.06   29.41</time>
   <energy>
    <i name="e_fr_energy">   -376.84695064 </i>
    <i name="e_wo_entrp">   -376.84695064 </i>
    <i name="e_0_energy">   -376.84695064 </i>
   </energy>
  </scstep>
  <scstep>
   <time name="dav">   13.10   14.26</time>
   <time name="total">   25.91   27.11</time>
   <energy>
    <i name="e_fr_energy">   -376.84756271 </i>
    <i name="e_wo_entrp">   -376.84756271 </i>
    <i name="e_0_energy">   -376.84756271 </i>
   </energy>
  </scstep>
  <scstep>
   <time name="dav">   13.22   14.41</time>
   <time name="total">   26.19   27.41</time>
   <energy>
    <i name="e_fr_energy">   -376.84803380 </i>
    <i name="e_wo_entrp">   -376.84803380 </i>
    <i name="e_0_energy">   -376.84803380 </i>
   </energy>
  </scstep>
  <scstep>
   <time name="dav">   13.10   14.28</time>
   <time name="total">   26.17   27.39</time>
   <energy>
    <i name="e_fr_energy">   -376.84826557 </i>
    <i name="e_wo_entrp">   -376.84826557 </i>
    <i name="e_0_energy">   -376.84826557 </i>
   </energy>
  </scstep>
  <scstep>
   <time name="dav">   13.21   14.47</time>
   <time name="total">   26.08   27.39</time>
   <energy>
    <i name="e_fr_energy">   -376.84836448 </i>
    <i name="e_wo_entrp">   -376.84836448 </i>
    <i name="e_0_energy">   -376.84836448 </i>
   </energy>
  </scstep>
  <scstep>
   <time name="dav">   13.24   14.40</time>
   <time name="total">   26.14   27.34</time>
   <energy>
    <i name="e_fr_energy">   -376.84848801 </i>
    <i name="e_wo_entrp">   -376.84848801 </i>
    <i name="e_0_energy">   -376.84848801 </i>
   </energy>
  </scstep>
  <scstep>
   <time name="dav">   13.27   14.42</time>
   <time name="total">   26.15   27.31</time>
   <energy>
    <i name="e_fr_energy">   -376.84852956 </i>
    <i name="e_wo_entrp">   -376.84852956 </i>
    <i name="e_0_energy">   -376.84852956 </i>
   </energy>
  </scstep>
  <scstep>
   <time name="dav">   13.19   14.36</time>
   <time name="total">   26.17   27.36</time>
   <energy>
    <i name="e_fr_energy">   -376.84855380 </i>
    <i name="e_wo_entrp">   -376.84855380 </i>
    <i name="e_0_energy">   -376.84855380 </i>
   </energy>
  </scstep>
  <scstep>
   <time name="dav">   13.12   14.25</time>
   <time name="total">   26.06   27.24</time>
   <energy>
    <i name="e_fr_energy">   -376.84856844 </i>
    <i name="e_wo_entrp">   -376.84856844 </i>
    <i name="e_0_energy">   -376.84856844 </i>
   </energy>
  </scstep>
  <scstep>
   <time name="dav">   13.21   14.33</time>
   <time name="total">   20.75   21.90</time>
   <energy>
    <i name="alphaZ">     12.91687988 </i>
    <i name="ewald">  23341.34424647 </i>
    <i name="hartreedc"> -29171.96946967 </i>
    <i name="XCdc">    424.19039208 </i>
    <i name="pawpsdc">  81065.00099687 </i>
    <i name="pawaedc"> -80891.83130190 </i>
    <i name="eentropy">     -0.00000000 </i>
    <i name="bandstr">  -2749.90022829 </i>
    <i name="atom">   7593.39991119 </i>
    <i name="e_fr_energy">   -376.84857336 </i>
    <i name="e_wo_entrp">   -376.84857336 </i>
    <i name="e_0_energy">   -376.84857336 </i>
   </energy>
  </scstep>
  <structure>
   <crystal>
    <varray name="basis" >
     <v>      20.00000000       0.00000000       0.00000000 </v>
     <v>       0.00000000      20.00000000       0.00000000 </v>
     <v>       0.00000000       0.00000000      20.00000000 </v>
    </varray>
    <i name="volume">   8000.00000000 </i>
    <varray name="rec_basis" >
     <v>       0.05000000       0.00000000       0.00000000 </v>
     <v>       0.00000000       0.05000000       0.00000000 </v>
     <v>       0.00000000       0.00000000       0.05000000 </v>
    </varray>
   </crystal>
   <varray name="positions" >
    <v>       0.39825425       0.53800137       0.60426081 </v>
    <v>       0.43793752       0.56561110       0.32757008 </v>
    <v>       0.45581208       0.52423376       0.38051465 </v>
    <v>       0.47372925       0.61530131       0.44986522 </v>
    <v>       0.45595175       0.65963312       0.39935201 </v>
    <v>       0.43785737       0.63472201       0.33675972 </v>
    <v>       0.52307882       0.32955005       0.67474498 </v>
    <v>       0.49710163       0.37190466       0.62618823 </v>
    <v>       0.60227374       0.41933300       0.60593616 </v>
    <v>       0.63096398       0.37761922       0.65422416 </v>
    <v>       0.73964927       0.52855915       0.53463181 </v>
    <v>       0.70082162       0.56612858       0.49044049 </v>
    <v>       0.63257913       0.55363620       0.48652424 </v>
    <v>       0.63952130       0.46927713       0.56732841 </v>
    <v>       0.70843899       0.47974495       0.57314689 </v>
    <v>       0.59134754       0.33224398       0.68903016 </v>
    <v>       0.36211554       0.48866484       0.56417415 </v>
    <v>       0.40790931       0.62211625       0.69058213 </v>
    <v>       0.47619960       0.62606623       0.67660612 </v>
    <v>       0.50295190       0.58590820       0.62668073 </v>
    <v>       0.29334713       0.47671938       0.56830116 </v>
    <v>       0.36904589       0.57756069       0.65398228 </v>
    <v>       0.37289802       0.40579857       0.48223443 </v>
    <v>       0.30486503       0.39173492       0.48443166 </v>
    <v>       0.26422003       0.42785518       0.52821594 </v>
    <v>       0.48989745       0.29510618       0.70074864 </v>
    <v>       0.61334240       0.29968355       0.72673159 </v>
    <v>       0.68424189       0.38076917       0.66478776 </v>
    <v>       0.54225374       0.36233861       0.46129841 </v>
    <v>       0.31579090       0.57306911       0.66420366 </v>
    <v>       0.44416348       0.37118871       0.61364770 </v>
    <v>       0.42392665       0.66833230       0.29622671 </v>
    <v>       0.45642762       0.71313270       0.40950260 </v>
    <v>       0.48809132       0.63358802       0.49907234 </v>
    <v>       0.56912778       0.41808713       0.41480476 </v>
    <v>       0.73767440       0.44963919       0.60776512 </v>
    <v>       0.72277620       0.60481012       0.45904817 </v>
    <v>       0.45570253       0.47012894       0.37468790 </v>
    <v>       0.40614333       0.37888556       0.44852541 </v>
    <v>       0.28443799       0.35306162       0.45202062 </v>
    <v>       0.79326502       0.53703787       0.53892527 </v>
    <v>       0.55589708       0.58769132       0.61440612 </v>
    <v>       0.42412006       0.54328620       0.27986105 </v>
    <v>       0.50894741       0.65984570       0.70400156 </v>
    <v>       0.26265982       0.50568523       0.60265428 </v>
    <v>       0.21072272       0.41813760       0.53105039 </v>
    <v>       0.60090654       0.58197914       0.45254259 </v>
    <v>       0.38544357       0.65296704       0.72941133 </v>
    <v>       0.47424490       0.54794204       0.44140236 </v>
    <v>       0.40180479       0.45306079       0.52108436 </v>
    <v>       0.53520702       0.41608490       0.59173240 </v>
    <v>       0.46544808       0.54254992       0.59041194 </v>
    <v>       0.60138410       0.50650621       0.52397638 </v>
    <v>       0.53073984       0.40562607       0.44215451 </v>
    <v>       0.50088568       0.48087016       0.51934246 </v>
   </varray>
  </structure>
  <varray name="forces" >
   <v>      -0.32142001       0.11022753       0.20865399 </v>
   <v>      -0.00722702      -0.00321863      -0.00608848 </v>
   <v>       0.00488057      -0.02901246       0.00503154 </v>
   <v>      -0.00211584      -0.00308280      -0.00802645 </v>
   <v>       0.00509374       0.01458519       0.03718159 </v>
   <v>       0.00362814      -0.01480346      -0.00153966 </v>
   <v>      -0.00530017      -0.00937469       0.01822846 </v>
   <v>       0.00066457       0.01684826      -0.03413788 </v>
   <v>      -0.02348272      -0.00159622      -0.00651818 </v>
   <v>       0.00813748       0.01712262      -0.00646543 </v>
   <v>      -0.02071353       0.01813964      -0.02407310 </v>
   <v>       0.03537346      -0.00301003       0.01354270 </v>
   <v>      -0.06309136      -0.00150514      -0.00689172 </v>
   <v>      -0.01154409       0.01276768      -0.02048106 </v>
   <v>      -0.01164069      -0.01194543       0.01181968 </v>
   <v>      -0.02532577       0.00280276      -0.01209298 </v>
   <v>       0.25647774       0.18528518       0.12847044 </v>
   <v>      -0.05648940      -0.07436065      -0.07105135 </v>
   <v>       0.02267563      -0.05084460      -0.04868698 </v>
   <v>      -0.14655459       0.06483517       0.13968997 </v>
   <v>       0.06108406       0.22219912       0.19980438 </v>
   <v>       0.46345392      -0.34968974      -0.48728270 </v>
   <v>      -0.02202313       0.02146793       0.02680343 </v>
   <v>      -0.01465161       0.01030430       0.01579701 </v>
   <v>       0.05600727      -0.01515331      -0.02486122 </v>
   <v>      -0.00172672      -0.00578897       0.00214640 </v>
   <v>       0.00182938      -0.00672608       0.00465338 </v>
   <v>      -0.00126748      -0.00166935       0.00109343 </v>
   <v>       0.01370291      -0.03858513      -0.00291826 </v>
   <v>       0.01874307      -0.10739100      -0.12346963 </v>
   <v>      -0.00383406      -0.02681460       0.00226268 </v>
   <v>      -0.00122355       0.00689697      -0.00087688 </v>
   <v>       0.00413700       0.00280325      -0.00140254 </v>
   <v>       0.01839650       0.02912043      -0.01866426 </v>
   <v>       0.02222561       0.00091338      -0.02956012 </v>
   <v>       0.00579632       0.00005643      -0.00051804 </v>
   <v>       0.00178570       0.00167583      -0.00636430 </v>
   <v>      -0.00228871      -0.00172396      -0.01537810 </v>
   <v>       0.00901255       0.01491247       0.01157192 </v>
   <v>      -0.00552874      -0.00613595      -0.00177447 </v>
   <v>       0.00263063       0.00188362       0.00030748 </v>
   <v>      -0.03953731      -0.05876455      -0.05534875 </v>
   <v>      -0.00371228      -0.00101371       0.00325367 </v>
   <v>       0.00178093       0.01331642       0.00865856 </v>
   <v>      -0.04323695      -0.01575218      -0.00816798 </v>
   <v>       0.00010984       0.01795423       0.01596181 </v>
   <v>       0.00900019       0.00118993      -0.00929291 </v>
   <v>      -0.05798214      -0.03421313      -0.02389088 </v>
   <v>      -0.00853781       0.02076955      -0.11449722 </v>
   <v>       0.11112760       0.23916277       0.19140638 </v>
   <v>       0.10849487      -0.16502345       0.11962306 </v>
   <v>      -0.16503208      -0.39588342      -0.32976584 </v>
   <v>       0.15568712       0.05091443       0.00262574 </v>
   <v>      -0.04218894       0.12407937       0.14141887 </v>
   <v>      -0.29426010       0.21084817       0.19008080 </v>
  </varray>
  <varray name="stress" >
   <v>      -2.85562760      -0.04707354      -0.00638549 </v>
   <v>      -0.04707353      -2.96238322      -0.43964391 </v>
   <v>      -0.00638550      -0.43964393      -3.00365784 </v>
  </varray>
  <energy>
   <i name="e_fr_energy">   -376.84857336 </i>
   <i name="e_wo_entrp">   -376.84857336 </i>
   <i name="e_0_energy">     -0.00000000 </i>
  </energy>
  <time name="totalsc"> 1039.04 1079.20</time>
  <eigenvalues>
   <array>
    <dimension dim="1">band</dimension>
    <dimension dim="2">kpoint</dimension>
    <dimension dim="3">spin</dimension>
    <field>eigene</field>
    <field>occ</field>
    <set>
     <set comment="spin 1">
      <set comment="kpoint 1">
       <r>  -49.2793    1.0000 </r>
       <r>  -49.1091    1.0000 </r>
       <r>  -48.8526    1.0000 </r>
       <r>  -29.2231    1.0000 </r>
       <r>  -28.0904    1.0000 </r>
       <r>  -26.9089    1.0000 </r>
       <r>  -26.7288    1.0000 </r>
       <r>  -26.2377    1.0000 </r>
       <r>  -26.2070    1.0000 </r>
       <r>  -23.5896    1.0000 </r>
       <r>  -23.2324    1.0000 </r>
       <r>  -22.6174    1.0000 </r>
       <r>  -22.4993    1.0000 </r>
       <r>  -22.3765    1.0000 </r>
       <r>  -22.2746    1.0000 </r>
       <r>  -22.0985    1.0000 </r>
       <r>  -21.5297    1.0000 </r>
       <r>  -21.1782    1.0000 </r>
       <r>  -20.8586    1.0000 </r>
       <r>  -19.6168    1.0000 </r>
       <r>  -19.3564    1.0000 </r>
       <r>  -18.7816    1.0000 </r>
       <r>  -18.5174    1.0000 </r>
       <r>  -18.2361    1.0000 </r>
       <r>  -18.0412    1.0000 </r>
       <r>  -17.8994    1.0000 </r>
       <r>  -17.6955    1.0000 </r>
       <r>  -17.6613    1.0000 </r>
       <r>  -17.3676    1.0000 </r>
       <r>  -16.8948    1.0000 </r>
       <r>  -16.6750    1.0000 </r>
       <r>  -15.9141    1.0000 </r>
       <r>  -15.6808    1.0000 </r>
       <r>  -15.3543    1.0000 </r>
       <r>  -15.2101    1.0000 </r>
       <r>  -14.8265    1.0000 </r>
       <r>  -14.7525    1.0000 </r>
       <r>  -14.6989    1.0000 </r>
       <r>  -14.4507    1.0000 </r>
       <r>  -14.3146    1.0000 </r>
       <r>  -14.1778    1.0000 </r>
       <r>  -14.1045    1.0000 </r>
       <r>  -14.0204    1.0000 </r>
       <r>  -13.9641    1.0000 </r>
       <r>  -13.8579    1.0000 </r>
       <r>  -13.4548    1.0000 </r>
       <r>  -13.4148    1.0000 </r>
       <r>  -13.3831    1.0000 </r>
       <r>  -13.2898    1.0000 </r>
       <r>  -13.2032    1.0000 </r>
       <r>  -13.0552    1.0000 </r>
       <r>  -13.0182    1.0000 </r>
       <r>  -12.8162    1.0000 </r>
       <r>  -12.7575    1.0000 </r>
       <r>  -12.5114    1.0000 </r>
       <r>  -12.4708    1.0000 </r>
       <r>  -12.3568    1.0000 </r>
       <r>  -12.2241    1.0000 </r>
       <r>  -12.1063    1.0000 </r>
       <r>  -11.9915    1.0000 </r>
       <r>  -11.7099    1.0000 </r>
       <r>  -11.4936    1.0000 </r>
       <r>  -11.3263    1.0000 </r>
       <r>  -11.2285    1.0000 </r>
       <r>  -11.1550    1.0000 </r>
       <r>  -10.8948    1.0000 </r>
       <r>  -10.8243    1.0000 </r>
       <r>  -10.7174    1.0000 </r>
       <r>  -10.6342    1.0000 </r>
       <r>  -10.5981    1.0000 </r>
       <r>  -10.0771    1.0000 </r>
       <r>  -10.0448    1.0000 </r>
       <r>   -9.8999    1.0000 </r>
       <r>   -9.8282    1.0000 </r>
       <r>   -9.7867    1.0000 </r>
       <r>   -9.6948    1.0000 </r>
       <r>   -9.4830    1.0000 </r>
       <r>   -9.0278    1.0000 </r>
       <r>   -8.7968    1.0000 </r>
       <r>   -8.4577    1.0000 </r>
       <r>   -7.5818    1.0000 </r>
       <r>   -7.4133    1.0000 </r>
       <r>   -7.2602    1.0000 </r>
       <r>   -5.8030    0.0000 </r>
       <r>   -5.0884    0.0000 </r>
       <r>   -4.8662    0.0000 </r>
       <r>   -4.3919    0.0000 </r>
       <r>   -4.2337    0.0000 </r>
       <r>   -4.1938    0.0000 </r>
       <r>   -4.0580    0.0000 </r>
       <r>   -4.0398    0.0000 </r>
       <r>   -3.6037    0.0000 </r>
       <r>   -3.4569    0.0000 </r>
       <r>   -3.2094    0.0000 </r>
       <r>   -2.8672    0.0000 </r>
       <r>   -2.8011    0.0000 </r>
       <r>   -1.9461    0.0000 </r>
       <r>   -1.6987    0.0000 </r>
       <r>   -1.5499    0.0000 </r>
       <r>   -1.3208    0.0000 </r>
       <r>   -1.2602    0.0000 </r>
       <r>   -1.2056    0.0000 </r>
       <r>   -1.1389    0.0000 </r>
       <r>   -1.0404    0.0000 </r>
       <r>   -0.8860    0.0000 </r>
       <r>   -0.7530    0.0000 </r>
       <r>   -0.6707    0.0000 </r>
       <r>   -0.6276    0.0000 </r>
       <r>   -0.5662    0.0000 </r>
       <r>   -0.5372    0.0000 </r>
       <r>   -0.4196    0.0000 </r>
       <r>   -0.3620    0.0000 </r>
       <r>   -0.2311    0.0000 </r>
       <r>   -0.1394    0.0000 </r>
       <r>   -0.0703    0.0000 </r>
       <r>   -0.0417    0.0000 </r>
       <r>    0.0180    0.0000 </r>
       <r>    0.1010    0.0000 </r>
       <r>    0.1664    0.0000 </r>
       <r>    0.2717    0.0000 </r>
       <r>    0.3027    0.0000 </r>
       <r>    0.3769    0.0000 </r>
       <r>    0.4212    0.0000 </r>
       <r>    0.4680    0.0000 </r>
       <r>    0.5267    0.0000 </r>
       <r>    0.5995    0.0000 </r>
       <r>    0.6134    0.0000 </r>
       <r>    0.6646    0.0000 </r>
      </set>
     </set>
     <set comment="spin 2">
      <set comment="kpoint 1">
       <r>  -49.2793    1.0000 </r>
       <r>  -49.1091    1.0000 </r>
       <r>  -48.8526    1.0000 </r>
       <r>  -29.2231    1.0000 </r>
       <r>  -28.0904    1.0000 </r>
       <r>  -26.9089    1.0000 </r>
       <r>  -26.7288    1.0000 </r>
       <r>  -26.2377    1.0000 </r>
       <r>  -26.2070    1.0000 </r>
       <r>  -23.5896    1.0000 </r>
       <r>  -23.2324    1.0000 </r>
       <r>  -22.6174    1.0000 </r>
       <r>  -22.4993    1.0000 </r>
       <r>  -22.3765    1.0000 </r>
       <r>  -22.2746    1.0000 </r>
       <r>  -22.0985    1.0000 </r>
       <r>  -21.5297    1.0000 </r>
       <r>  -21.1782    1.0000 </r>
       <r>  -20.8586    1.0000 </r>
       <r>  -19.6168    1.0000 </r>
       <r>  -19.3564    1.0000 </r>
       <r>  -18.7816    1.0000 </r>
       <r>  -18.5174    1.0000 </r>
       <r>  -18.2361    1.0000 </r>
       <r>  -18.0412    1.0000 </r>
       <r>  -17.8994    1.0000 </r>
       <r>  -17.6955    1.0000 </r>
       <r>  -17.6613    1.0000 </r>
       <r>  -17.3676    1.0000 </r>
       <r>  -16.8948    1.0000 </r>
       <r>  -16.6750    1.0000 </r>
       <r>  -15.9141    1.0000 </r>
       <r>  -15.6808    1.0000 </r>
       <r>  -15.3543    1.0000 </r>
       <r>  -15.2101    1.0000 </r>
       <r>  -14.8265    1.0000 </r>
       <r>  -14.7525    1.0000 </r>
       <r>  -14.6989    1.0000 </r>
       <r>  -14.4507    1.0000 </r>
       <r>  -14.3146    1.0000 </r>
       <r>  -14.1778    1.0000 </r>
       <r>  -14.1045    1.0000 </r>
       <r>  -14.0204    1.0000 </r>
       <r>  -13.9641    1.0000 </r>
       <r>  -13.8579    1.0000 </r>
       <r>  -13.4548    1.0000 </r>
       <r>  -13.4148    1.0000 </r>
       <r>  -13.3831    1.0000 </r>
       <r>  -13.2898    1.0000 </r>
       <r>  -13.2032    1.0000 </r>
       <r>  -13.0552    1.0000 </r>
       <r>  -13.0182    1.0000 </r>
       <r>  -12.8162    1.0000 </r>
       <r>  -12.7575    1.0000 </r>
       <r>  -12.5114    1.0000 </r>
       <r>  -12.4708    1.0000 </r>
       <r>  -12.3568    1.0000 </r>
       <r>  -12.2241    1.0000 </r>
       <r>  -12.1063    1.0000 </r>
       <r>  -11.9915    1.0000 </r>
       <r>  -11.7099    1.0000 </r>
       <r>  -11.4936    1.0000 </r>
       <r>  -11.3263    1.0000 </r>
       <r>  -11.2285    1.0000 </r>
       <r>  -11.1550    1.0000 </r>
       <r>  -10.8948    1.0000 </r>
       <r>  -10.8243    1.0000 </r>
       <r>  -10.7174    1.0000 </r>
       <r>  -10.6342    1.0000 </r>
       <r>  -10.5981    1.0000 </r>
       <r>  -10.0771    1.0000 </r>
       <r>  -10.0448    1.0000 </r>
       <r>   -9.8999    1.0000 </r>
       <r>   -9.8282    1.0000 </r>
       <r>   -9.7867    1.0000 </r>
       <r>   -9.6948    1.0000 </r>
       <r>   -9.4830    1.0000 </r>
       <r>   -9.0278    1.0000 </r>
       <r>   -8.7968    1.0000 </r>
       <r>   -8.4577    1.0000 </r>
       <r>   -7.5818    1.0000 </r>
       <r>   -7.4133    1.0000 </r>
       <r>   -7.2602    1.0000 </r>
       <r>   -5.8030    0.0000 </r>
       <r>   -5.0884    0.0000 </r>
       <r>   -4.8662    0.0000 </r>
       <r>   -4.3919    0.0000 </r>
       <r>   -4.2337    0.0000 </r>
       <r>   -4.1938    0.0000 </r>
       <r>   -4.0580    0.0000 </r>
       <r>   -4.0398    0.0000 </r>
       <r>   -3.6037    0.0000 </r>
       <r>   -3.4569    0.0000 </r>
       <r>   -3.2094    0.0000 </r>
       <r>   -2.8672    0.0000 </r>
       <r>   -2.8011    0.0000 </r>
       <r>   -1.9461    0.0000 </r>
       <r>   -1.6987    0.0000 </r>
       <r>   -1.5499    0.0000 </r>
       <r>   -1.3208    0.0000 </r>
       <r>   -1.2602    0.0000 </r>
       <r>   -1.2056    0.0000 </r>
       <r>   -1.1389    0.0000 </r>
       <r>   -1.0404    0.0000 </r>
       <r>   -0.8860    0.0000 </r>
       <r>   -0.7530    0.0000 </r>
       <r>   -0.6707    0.0000 </r>
       <r>   -0.6276    0.0000 </r>
       <r>   -0.5662    0.0000 </r>
       <r>   -0.5372    0.0000 </r>
       <r>   -0.4196    0.0000 </r>
       <r>   -0.3620    0.0000 </r>
       <r>   -0.2312    0.0000 </r>
       <r>   -0.1394    0.0000 </r>
       <r>   -0.0703    0.0000 </r>
       <r>   -0.0417    0.0000 </r>
       <r>    0.0180    0.0000 </r>
       <r>    0.1010    0.0000 </r>
       <r>    0.1664    0.0000 </r>
       <r>    0.2717    0.0000 </r>
       <r>    0.3027    0.0000 </r>
       <r>    0.3769    0.0000 </r>
       <r>    0.4212    0.0000 </r>
       <r>    0.4680    0.0000 </r>
       <r>    0.5267    0.0000 </r>
       <r>    0.5995    0.0000 </r>
       <r>    0.6134    0.0000 </r>
       <r>    0.6646    0.0000 </r>
      </set>
     </set>
    </set>
   </array>
  </eigenvalues>
  <separator name="orbital magnetization" >
   <v name="MAGDIPOLOUT">      0.00000000      0.00000000      0.00000000</v>
  </separator>
  <dos>
   <i name="efermi">     -7.18488672 </i>
   <total>
    <array>
     <dimension dim="1">gridpoints</dimension>
     <dimension dim="2">spin</dimension>
     <field>energy</field>
     <field>total</field>
     <field>integrated</field>
     <set>
      <set comment="spin 1">
       <r>   -51.7765     0.0000     0.0000 </r>
       <r>   -51.5934     0.0000     0.0000 </r>
       <r>   -51.4102     0.0000     0.0000 </r>
       <r>   -51.2271     0.0000     0.0000 </r>
       <r>   -51.0440     0.0000     0.0000 </r>
       <r>   -50.8609     0.0000     0.0000 </r>
       <r>   -50.6777     0.0000     0.0000 </r>
       <r>   -50.4946     0.0000     0.0000 </r>
       <r>   -50.3115     0.0000     0.0000 </r>
       <r>   -50.1283     0.0000     0.0000 </r>
       <r>   -49.9452     0.0000     0.0000 </r>
       <r>   -49.7621     0.0000     0.0000 </r>
       <r>   -49.5790     0.0000     0.0000 </r>
       <r>   -49.3958     0.0000     0.0000 </r>
       <r>   -49.2127    10.9213     2.0000 </r>
       <r>   -49.0296    10.9213     4.0000 </r>
       <r>   -48.8465     8.8009     5.6117 </r>
       <r>   -48.6633     0.0000     6.0000 </r>
       <r>   -48.4802     0.0000     6.0000 </r>
       <r>   -48.2971     0.0000     6.0000 </r>
       <r>   -48.1139     0.0000     6.0000 </r>
       <r>   -47.9308     0.0000     6.0000 </r>
       <r>   -47.7477     0.0000     6.0000 </r>
       <r>   -47.5646     0.0000     6.0000 </r>
       <r>   -47.3814     0.0000     6.0000 </r>
       <r>   -47.1983     0.0000     6.0000 </r>
       <r>   -47.0152     0.0000     6.0000 </r>
       <r>   -46.8320     0.0000     6.0000 </r>
       <r>   -46.6489     0.0000     6.0000 </r>
       <r>   -46.4658     0.0000     6.0000 </r>
       <r>   -46.2827     0.0000     6.0000 </r>
       <r>   -46.0995     0.0000     6.0000 </r>
       <r>   -45.9164     0.0000     6.0000 </r>
       <r>   -45.7333     0.0000     6.0000 </r>
       <r>   -45.5502     0.0000     6.0000 </r>
       <r>   -45.3670     0.0000     6.0000 </r>
       <r>   -45.1839     0.0000     6.0000 </r>
       <r>   -45.0008     0.0000     6.0000 </r>
       <r>   -44.8176     0.0000     6.0000 </r>
       <r>   -44.6345     0.0000     6.0000 </r>
       <r>   -44.4514     0.0000     6.0000 </r>
       <r>   -44.2683     0.0000     6.0000 </r>
       <r>   -44.0851     0.0000     6.0000 </r>
       <r>   -43.9020     0.0000     6.0000 </r>
       <r>   -43.7189     0.0000     6.0000 </r>
       <r>   -43.5357     0.0000     6.0000 </r>
       <r>   -43.3526     0.0000     6.0000 </r>
       <r>   -43.1695     0.0000     6.0000 </r>
       <r>   -42.9864     0.0000     6.0000 </r>
       <r>   -42.8032     0.0000     6.0000 </r>
       <r>   -42.6201     0.0000     6.0000 </r>
       <r>   -42.4370     0.0000     6.0000 </r>
       <r>   -42.2539     0.0000     6.0000 </r>
       <r>   -42.0707     0.0000     6.0000 </r>
       <r>   -41.8876     0.0000     6.0000 </r>
       <r>   -41.7045     0.0000     6.0000 </r>
       <r>   -41.5213     0.0000     6.0000 </r>
       <r>   -41.3382     0.0000     6.0000 </r>
       <r>   -41.1551     0.0000     6.0000 </r>
       <r>   -40.9720     0.0000     6.0000 </r>
       <r>   -40.7888     0.0000     6.0000 </r>
       <r>   -40.6057     0.0000     6.0000 </r>
       <r>   -40.4226     0.0000     6.0000 </r>
       <r>   -40.2394     0.0000     6.0000 </r>
       <r>   -40.0563     0.0000     6.0000 </r>
       <r>   -39.8732     0.0000     6.0000 </r>
       <r>   -39.6901     0.0000     6.0000 </r>
       <r>   -39.5069     0.0000     6.0000 </r>
       <r>   -39.3238     0.0000     6.0000 </r>
       <r>   -39.1407     0.0000     6.0000 </r>
       <r>   -38.9576     0.0000     6.0000 </r>
       <r>   -38.7744     0.0000     6.0000 </r>
       <r>   -38.5913     0.0000     6.0000 </r>
       <r>   -38.4082     0.0000     6.0000 </r>
       <r>   -38.2250     0.0000     6.0000 </r>
       <r>   -38.0419     0.0000     6.0000 </r>
       <r>   -37.8588     0.0000     6.0000 </r>
       <r>   -37.6757     0.0000     6.0000 </r>
       <r>   -37.4925     0.0000     6.0000 </r>
       <r>   -37.3094     0.0000     6.0000 </r>
       <r>   -37.1263     0.0000     6.0000 </r>
       <r>   -36.9431     0.0000     6.0000 </r>
       <r>   -36.7600     0.0000     6.0000 </r>
       <r>   -36.5769     0.0000     6.0000 </r>
       <r>   -36.3938     0.0000     6.0000 </r>
       <r>   -36.2106     0.0000     6.0000 </r>
       <r>   -36.0275     0.0000     6.0000 </r>
       <r>   -35.8444     0.0000     6.0000 </r>
       <r>   -35.6613     0.0000     6.0000 </r>
       <r>   -35.4781     0.0000     6.0000 </r>
       <r>   -35.2950     0.0000     6.0000 </r>
       <r>   -35.1119     0.0000     6.0000 </r>
       <r>   -34.9287     0.0000     6.0000 </r>
       <r>   -34.7456     0.0000     6.0000 </r>
       <r>   -34.5625     0.0000     6.0000 </r>
       <r>   -34.3794     0.0000     6.0000 </r>
       <r>   -34.1962     0.0000     6.0000 </r>
       <r>   -34.0131     0.0000     6.0000 </r>
       <r>   -33.8300     0.0000     6.0000 </r>
       <r>   -33.6468     0.0000     6.0000 </r>
       <r>   -33.4637     0.0000     6.0000 </r>
       <r>   -33.2806     0.0000     6.0000 </r>
       <r>   -33.0975     0.0000     6.0000 </r>
       <r>   -32.9143     0.0000     6.0000 </r>
       <r>   -32.7312     0.0000     6.0000 </r>
       <r>   -32.5481     0.0000     6.0000 </r>
       <r>   -32.3650     0.0000     6.0000 </r>
       <r>   -32.1818     0.0000     6.0000 </r>
       <r>   -31.9987     0.0000     6.0000 </r>
       <r>   -31.8156     0.0000     6.0000 </r>
       <r>   -31.6324     0.0000     6.0000 </r>
       <r>   -31.4493     0.0000     6.0000 </r>
       <r>   -31.2662     0.0000     6.0000 </r>
       <r>   -31.0831     0.0000     6.0000 </r>
       <r>   -30.8999     0.0000     6.0000 </r>
       <r>   -30.7168     0.0000     6.0000 </r>
       <r>   -30.5337     0.0000     6.0000 </r>
       <r>   -30.3505     0.0000     6.0000 </r>
       <r>   -30.1674     0.0000     6.0000 </r>
       <r>   -29.9843     0.0000     6.0000 </r>
       <r>   -29.8012     0.0000     6.0000 </r>
       <r>   -29.6180     0.0000     6.0000 </r>
       <r>   -29.4349     0.0000     6.0000 </r>
       <r>   -29.2518     0.0003     6.0000 </r>
       <r>   -29.0687     0.0000     8.0000 </r>
       <r>   -28.8855     0.0000     8.0000 </r>
       <r>   -28.7024     0.0000     8.0000 </r>
       <r>   -28.5193     0.0000     8.0000 </r>
       <r>   -28.3361     0.0000     8.0000 </r>
       <r>   -28.1530     0.0000     8.0000 </r>
       <r>   -27.9699     0.0000    10.0000 </r>
       <r>   -27.7868     0.0000    10.0000 </r>
       <r>   -27.6036     0.0000    10.0000 </r>
       <r>   -27.4205     0.0000    10.0000 </r>
       <r>   -27.2374     0.0000    10.0000 </r>
       <r>   -27.0542     0.0000    10.0000 </r>
       <r>   -26.8711    10.9213    12.0000 </r>
       <r>   -26.6880    10.9213    14.0000 </r>
       <r>   -26.5049     0.0000    14.0000 </r>
       <r>   -26.3217     0.0000    14.0000 </r>
       <r>   -26.1386    10.9213    18.0000 </r>
       <r>   -25.9555     0.0000    18.0000 </r>
       <r>   -25.7724     0.0000    18.0000 </r>
       <r>   -25.5892     0.0000    18.0000 </r>
       <r>   -25.4061     0.0000    18.0000 </r>
       <r>   -25.2230     0.0000    18.0000 </r>
       <r>   -25.0398     0.0000    18.0000 </r>
       <r>   -24.8567     0.0000    18.0000 </r>
       <r>   -24.6736     0.0000    18.0000 </r>
       <r>   -24.4905     0.0000    18.0000 </r>
       <r>   -24.3073     0.0000    18.0000 </r>
       <r>   -24.1242     0.0000    18.0000 </r>
       <r>   -23.9411     0.0000    18.0000 </r>
       <r>   -23.7579     0.0000    18.0000 </r>
       <r>   -23.5748    10.7234    19.9637 </r>
       <r>   -23.3917     0.0000    20.0000 </r>
       <r>   -23.2086    10.9173    21.9993 </r>
       <r>   -23.0254     0.0000    22.0000 </r>
       <r>   -22.8423     0.0000    22.0000 </r>
       <r>   -22.6592     0.0000    22.0000 </r>
       <r>   -22.4761    10.9158    25.9990 </r>
       <r>   -22.2929     0.0529    28.0097 </r>
       <r>   -22.1098     0.5988    30.1097 </r>
       <r>   -21.9267     0.0000    32.0000 </r>
       <r>   -21.7435     0.0000    32.0000 </r>
       <r>   -21.5604     0.0001    32.0000 </r>
       <r>   -21.3773     0.0000    34.0000 </r>
       <r>   -21.1942     0.1308    34.0240 </r>
       <r>   -21.0110     0.0000    36.0000 </r>
       <r>   -20.8279    10.9213    38.0000 </r>
       <r>   -20.6448     0.0000    38.0000 </r>
       <r>   -20.4617     0.0000    38.0000 </r>
       <r>   -20.2785     0.0000    38.0000 </r>
       <r>   -20.0954     0.0000    38.0000 </r>
       <r>   -19.9123     0.0000    38.0000 </r>
       <r>   -19.7291     0.0000    38.0000 </r>
       <r>   -19.5460    10.9213    40.0000 </r>
       <r>   -19.3629     1.9476    40.3567 </r>
       <r>   -19.1798     0.0000    42.0000 </r>
       <r>   -18.9966     0.0000    42.0000 </r>
       <r>   -18.8135     0.0000    42.0000 </r>
       <r>   -18.6304     0.0000    44.0000 </r>
       <r>   -18.4472    10.9213    46.0000 </r>
       <r>   -18.2641     0.0004    46.0001 </r>
       <r>   -18.0810     0.0000    48.0000 </r>
       <r>   -17.8979     6.4103    51.1739 </r>
       <r>   -17.7147     0.0350    52.0064 </r>
       <r>   -17.5316     0.0000    56.0000 </r>
       <r>   -17.3485    10.8841    57.9932 </r>
       <r>   -17.1654     0.0000    58.0000 </r>
       <r>   -16.9822     0.0000    58.0000 </r>
       <r>   -16.7991     0.0000    60.0000 </r>
       <r>   -16.6160    10.9213    62.0000 </r>
       <r>   -16.4328     0.0000    62.0000 </r>
       <r>   -16.2497     0.0000    62.0000 </r>
       <r>   -16.0666     0.0000    62.0000 </r>
       <r>   -15.8835    10.9213    64.0000 </r>
       <r>   -15.7003     0.0311    64.0057 </r>
       <r>   -15.5172     0.0000    66.0000 </r>
       <r>   -15.3341    10.8980    67.9957 </r>
       <r>   -15.1509    10.9213    70.0000 </r>
       <r>   -14.9678     0.0000    70.0000 </r>
       <r>   -14.7847    10.9214    72.0000 </r>
       <r>   -14.6016     0.0000    76.0000 </r>
       <r>   -14.4184    10.9213    78.0000 </r>
       <r>   -14.2353    10.9213    80.0000 </r>
       <r>   -14.0522    10.9214    84.0000 </r>
       <r>   -13.8691     0.6197    88.1135 </r>
       <r>   -13.6859     0.0000    90.0000 </r>
       <r>   -13.5028     0.0000    90.0000 </r>
       <r>   -13.3197    10.9215    96.0000 </r>
       <r>   -13.1365    10.9213   100.0000 </r>
       <r>   -12.9534    10.9213   104.0000 </r>
       <r>   -12.7703    11.3111   106.0714 </r>
       <r>   -12.5872     0.0000   108.0000 </r>
       <r>   -12.4040    10.9213   112.0000 </r>
       <r>   -12.2209     7.3906   115.3534 </r>
       <r>   -12.0378    10.9213   118.0000 </r>
       <r>   -11.8546     0.0000   120.0000 </r>
       <r>   -11.6715    10.9213   122.0000 </r>
       <r>   -11.4884     8.3858   123.5357 </r>
       <r>   -11.3053    10.9054   125.9971 </r>
       <r>   -11.1221    10.9213   130.0000 </r>
       <r>   -10.9390     0.0000   130.0000 </r>
       <r>   -10.7559    10.9213   134.0000 </r>
       <r>   -10.5728    21.8408   139.9997 </r>
       <r>   -10.3896     0.0000   140.0000 </r>
       <r>   -10.2065     0.0000   140.0000 </r>
       <r>   -10.0234    21.8296   143.9976 </r>
       <r>    -9.8402    11.4107   146.0896 </r>
       <r>    -9.6571    10.9213   152.0000 </r>
       <r>    -9.4740     9.8145   153.7973 </r>
       <r>    -9.2909     0.0000   154.0000 </r>
       <r>    -9.1077     0.0000   154.0000 </r>
       <r>    -8.9246     0.0000   156.0000 </r>
       <r>    -8.7415    10.9213   158.0000 </r>
       <r>    -8.5583     0.0000   158.0000 </r>
       <r>    -8.3752     0.0000   160.0000 </r>
       <r>    -8.1921     0.0000   160.0000 </r>
       <r>    -8.0090     0.0000   160.0000 </r>
       <r>    -7.8258     0.0000   160.0000 </r>
       <r>    -7.6427     0.0000   160.0000 </r>
       <r>    -7.4596     0.0000   162.0000 </r>
       <r>    -7.2765     0.1162   164.0213 </r>
       <r>    -7.0933     0.0000   166.0000 </r>
       <r>    -6.9102     0.0000   166.0000 </r>
       <r>    -6.7271     0.0000   166.0000 </r>
       <r>    -6.5439     0.0000   166.0000 </r>
       <r>    -6.3608     0.0000   166.0000 </r>
       <r>    -6.1777     0.0000   166.0000 </r>
       <r>    -5.9946     0.0000   166.0000 </r>
       <r>    -5.8114     1.2888   166.2360 </r>
       <r>    -5.6283     0.0000   168.0000 </r>
       <r>    -5.4452     0.0000   168.0000 </r>
       <r>    -5.2620     0.0000   168.0000 </r>
       <r>    -5.0789     9.9373   169.8198 </r>
       <r>    -4.8958     0.0002   170.0000 </r>
       <r>    -4.7127     0.0000   172.0000 </r>
       <r>    -4.5295     0.0000   172.0000 </r>
       <r>    -4.3464    10.9213   174.0000 </r>
       <r>    -4.1633    21.8426   178.0000 </r>
       <r>    -3.9802    21.8427   182.0000 </r>
       <r>    -3.7970     0.0000   182.0000 </r>
       <r>    -3.6139     0.8166   182.1495 </r>
       <r>    -3.4308    10.9202   185.9998 </r>
       <r>    -3.2476     0.0000   186.0000 </r>
       <r>    -3.0645     0.0000   188.0000 </r>
       <r>    -2.8814     0.2438   188.0447 </r>
       <r>    -2.6983     0.0000   192.0000 </r>
       <r>    -2.5151     0.0000   192.0000 </r>
       <r>    -2.3320     0.0000   192.0000 </r>
       <r>    -2.1489     0.0000   192.0000 </r>
       <r>    -1.9657     0.0300   192.0055 </r>
       <r>    -1.7826     0.0000   194.0000 </r>
       <r>    -1.5995     0.0000   196.0000 </r>
       <r>    -1.4164     0.0000   198.0000 </r>
       <r>    -1.2332    10.9211   202.0000 </r>
       <r>    -1.0501     0.9366   206.1715 </r>
       <r>    -0.8670    10.8827   209.9929 </r>
       <r>    -0.6839    11.2634   212.0626 </r>
       <r>    -0.5007    21.8427   220.0000 </r>
       <r>    -0.3176    10.9213   224.0000 </r>
       <r>    -0.1345     8.2473   227.5103 </r>
       <r>     0.0487    10.9213   234.0000 </r>
       <r>     0.2318    10.9213   238.0000 </r>
       <r>     0.4149    12.9458   244.3707 </r>
       <r>     0.5980    15.6457   250.8652 </r>
       <r>     0.7812     0.0000   256.0000 </r>
       <r>     0.9643     0.0000   256.0000 </r>
       <r>     1.1474     0.0000   256.0000 </r>
       <r>     1.3306     0.0000   256.0000 </r>
       <r>     1.5137     0.0000   256.0000 </r>
       <r>     1.6968     0.0000   256.0000 </r>
       <r>     1.8799     0.0000   256.0000 </r>
       <r>     2.0631     0.0000   256.0000 </r>
       <r>     2.2462     0.0000   256.0000 </r>
       <r>     2.4293     0.0000   256.0000 </r>
       <r>     2.6124     0.0000   256.0000 </r>
       <r>     2.7956     0.0000   256.0000 </r>
       <r>     2.9787     0.0000   256.0000 </r>
       <r>     3.1618     0.0000   256.0000 </r>
      </set>
      <set comment="spin 2">
       <r>   -51.7765     0.0000     0.0000 </r>
       <r>   -51.5934     0.0000     0.0000 </r>
       <r>   -51.4102     0.0000     0.0000 </r>
       <r>   -51.2271     0.0000     0.0000 </r>
       <r>   -51.0440     0.0000     0.0000 </r>
       <r>   -50.8609     0.0000     0.0000 </r>
       <r>   -50.6777     0.0000     0.0000 </r>
       <r>   -50.4946     0.0000     0.0000 </r>
       <r>   -50.3115     0.0000     0.0000 </r>
       <r>   -50.1283     0.0000     0.0000 </r>
       <r>   -49.9452     0.0000     0.0000 </r>
       <r>   -49.7621     0.0000     0.0000 </r>
       <r>   -49.5790     0.0000     0.0000 </r>
       <r>   -49.3958     0.0000     0.0000 </r>
       <r>   -49.2127    10.9213     2.0000 </r>
       <r>   -49.0296    10.9213     4.0000 </r>
       <r>   -48.8465     8.8010     5.6117 </r>
       <r>   -48.6633     0.0000     6.0000 </r>
       <r>   -48.4802     0.0000     6.0000 </r>
       <r>   -48.2971     0.0000     6.0000 </r>
       <r>   -48.1139     0.0000     6.0000 </r>
       <r>   -47.9308     0.0000     6.0000 </r>
       <r>   -47.7477     0.0000     6.0000 </r>
       <r>   -47.5646     0.0000     6.0000 </r>
       <r>   -47.3814     0.0000     6.0000 </r>
       <r>   -47.1983     0.0000     6.0000 </r>
       <r>   -47.0152     0.0000     6.0000 </r>
       <r>   -46.8320     0.0000     6.0000 </r>
       <r>   -46.6489     0.0000     6.0000 </r>
       <r>   -46.4658     0.0000     6.0000 </r>
       <r>   -46.2827     0.0000     6.0000 </r>
       <r>   -46.0995     0.0000     6.0000 </r>
       <r>   -45.9164     0.0000     6.0000 </r>
       <r>   -45.7333     0.0000     6.0000 </r>
       <r>   -45.5502     0.0000     6.0000 </r>
       <r>   -45.3670     0.0000     6.0000 </r>
       <r>   -45.1839     0.0000     6.0000 </r>
       <r>   -45.0008     0.0000     6.0000 </r>
       <r>   -44.8176     0.0000     6.0000 </r>
       <r>   -44.6345     0.0000     6.0000 </r>
       <r>   -44.4514     0.0000     6.0000 </r>
       <r>   -44.2683     0.0000     6.0000 </r>
       <r>   -44.0851     0.0000     6.0000 </r>
       <r>   -43.9020     0.0000     6.0000 </r>
       <r>   -43.7189     0.0000     6.0000 </r>
       <r>   -43.5357     0.0000     6.0000 </r>
       <r>   -43.3526     0.0000     6.0000 </r>
       <r>   -43.1695     0.0000     6.0000 </r>
       <r>   -42.9864     0.0000     6.0000 </r>
       <r>   -42.8032     0.0000     6.0000 </r>
       <r>   -42.6201     0.0000     6.0000 </r>
       <r>   -42.4370     0.0000     6.0000 </r>
       <r>   -42.2539     0.0000     6.0000 </r>
       <r>   -42.0707     0.0000     6.0000 </r>
       <r>   -41.8876     0.0000     6.0000 </r>
       <r>   -41.7045     0.0000     6.0000 </r>
       <r>   -41.5213     0.0000     6.0000 </r>
       <r>   -41.3382     0.0000     6.0000 </r>
       <r>   -41.1551     0.0000     6.0000 </r>
       <r>   -40.9720     0.0000     6.0000 </r>
       <r>   -40.7888     0.0000     6.0000 </r>
       <r>   -40.6057     0.0000     6.0000 </r>
       <r>   -40.4226     0.0000     6.0000 </r>
       <r>   -40.2394     0.0000     6.0000 </r>
       <r>   -40.0563     0.0000     6.0000 </r>
       <r>   -39.8732     0.0000     6.0000 </r>
       <r>   -39.6901     0.0000     6.0000 </r>
       <r>   -39.5069     0.0000     6.0000 </r>
       <r>   -39.3238     0.0000     6.0000 </r>
       <r>   -39.1407     0.0000     6.0000 </r>
       <r>   -38.9576     0.0000     6.0000 </r>
       <r>   -38.7744     0.0000     6.0000 </r>
       <r>   -38.5913     0.0000     6.0000 </r>
       <r>   -38.4082     0.0000     6.0000 </r>
       <r>   -38.2250     0.0000     6.0000 </r>
       <r>   -38.0419     0.0000     6.0000 </r>
       <r>   -37.8588     0.0000     6.0000 </r>
       <r>   -37.6757     0.0000     6.0000 </r>
       <r>   -37.4925     0.0000     6.0000 </r>
       <r>   -37.3094     0.0000     6.0000 </r>
       <r>   -37.1263     0.0000     6.0000 </r>
       <r>   -36.9431     0.0000     6.0000 </r>
       <r>   -36.7600     0.0000     6.0000 </r>
       <r>   -36.5769     0.0000     6.0000 </r>
       <r>   -36.3938     0.0000     6.0000 </r>
       <r>   -36.2106     0.0000     6.0000 </r>
       <r>   -36.0275     0.0000     6.0000 </r>
       <r>   -35.8444     0.0000     6.0000 </r>
       <r>   -35.6613     0.0000     6.0000 </r>
       <r>   -35.4781     0.0000     6.0000 </r>
       <r>   -35.2950     0.0000     6.0000 </r>
       <r>   -35.1119     0.0000     6.0000 </r>
       <r>   -34.9287     0.0000     6.0000 </r>
       <r>   -34.7456     0.0000     6.0000 </r>
       <r>   -34.5625     0.0000     6.0000 </r>
       <r>   -34.3794     0.0000     6.0000 </r>
       <r>   -34.1962     0.0000     6.0000 </r>
       <r>   -34.0131     0.0000     6.0000 </r>
       <r>   -33.8300     0.0000     6.0000 </r>
       <r>   -33.6468     0.0000     6.0000 </r>
       <r>   -33.4637     0.0000     6.0000 </r>
       <r>   -33.2806     0.0000     6.0000 </r>
       <r>   -33.0975     0.0000     6.0000 </r>
       <r>   -32.9143     0.0000     6.0000 </r>
       <r>   -32.7312     0.0000     6.0000 </r>
       <r>   -32.5481     0.0000     6.0000 </r>
       <r>   -32.3650     0.0000     6.0000 </r>
       <r>   -32.1818     0.0000     6.0000 </r>
       <r>   -31.9987     0.0000     6.0000 </r>
       <r>   -31.8156     0.0000     6.0000 </r>
       <r>   -31.6324     0.0000     6.0000 </r>
       <r>   -31.4493     0.0000     6.0000 </r>
       <r>   -31.2662     0.0000     6.0000 </r>
       <r>   -31.0831     0.0000     6.0000 </r>
       <r>   -30.8999     0.0000     6.0000 </r>
       <r>   -30.7168     0.0000     6.0000 </r>
       <r>   -30.5337     0.0000     6.0000 </r>
       <r>   -30.3505     0.0000     6.0000 </r>
       <r>   -30.1674     0.0000     6.0000 </r>
       <r>   -29.9843     0.0000     6.0000 </r>
       <r>   -29.8012     0.0000     6.0000 </r>
       <r>   -29.6180     0.0000     6.0000 </r>
       <r>   -29.4349     0.0000     6.0000 </r>
       <r>   -29.2518     0.0003     6.0000 </r>
       <r>   -29.0687     0.0000     8.0000 </r>
       <r>   -28.8855     0.0000     8.0000 </r>
       <r>   -28.7024     0.0000     8.0000 </r>
       <r>   -28.5193     0.0000     8.0000 </r>
       <r>   -28.3361     0.0000     8.0000 </r>
       <r>   -28.1530     0.0000     8.0000 </r>
       <r>   -27.9699     0.0000    10.0000 </r>
       <r>   -27.7868     0.0000    10.0000 </r>
       <r>   -27.6036     0.0000    10.0000 </r>
       <r>   -27.4205     0.0000    10.0000 </r>
       <r>   -27.2374     0.0000    10.0000 </r>
       <r>   -27.0542     0.0000    10.0000 </r>
       <r>   -26.8711    10.9213    12.0000 </r>
       <r>   -26.6880    10.9213    14.0000 </r>
       <r>   -26.5049     0.0000    14.0000 </r>
       <r>   -26.3217     0.0000    14.0000 </r>
       <r>   -26.1386    10.9213    18.0000 </r>
       <r>   -25.9555     0.0000    18.0000 </r>
       <r>   -25.7724     0.0000    18.0000 </r>
       <r>   -25.5892     0.0000    18.0000 </r>
       <r>   -25.4061     0.0000    18.0000 </r>
       <r>   -25.2230     0.0000    18.0000 </r>
       <r>   -25.0398     0.0000    18.0000 </r>
       <r>   -24.8567     0.0000    18.0000 </r>
       <r>   -24.6736     0.0000    18.0000 </r>
       <r>   -24.4905     0.0000    18.0000 </r>
       <r>   -24.3073     0.0000    18.0000 </r>
       <r>   -24.1242     0.0000    18.0000 </r>
       <r>   -23.9411     0.0000    18.0000 </r>
       <r>   -23.7579     0.0000    18.0000 </r>
       <r>   -23.5748    10.7234    19.9637 </r>
       <r>   -23.3917     0.0000    20.0000 </r>
       <r>   -23.2086    10.9173    21.9993 </r>
       <r>   -23.0254     0.0000    22.0000 </r>
       <r>   -22.8423     0.0000    22.0000 </r>
       <r>   -22.6592     0.0000    22.0000 </r>
       <r>   -22.4761    10.9158    25.9990 </r>
       <r>   -22.2929     0.0529    28.0097 </r>
       <r>   -22.1098     0.5988    30.1097 </r>
       <r>   -21.9267     0.0000    32.0000 </r>
       <r>   -21.7435     0.0000    32.0000 </r>
       <r>   -21.5604     0.0001    32.0000 </r>
       <r>   -21.3773     0.0000    34.0000 </r>
       <r>   -21.1942     0.1308    34.0240 </r>
       <r>   -21.0110     0.0000    36.0000 </r>
       <r>   -20.8279    10.9213    38.0000 </r>
       <r>   -20.6448     0.0000    38.0000 </r>
       <r>   -20.4617     0.0000    38.0000 </r>
       <r>   -20.2785     0.0000    38.0000 </r>
       <r>   -20.0954     0.0000    38.0000 </r>
       <r>   -19.9123     0.0000    38.0000 </r>
       <r>   -19.7291     0.0000    38.0000 </r>
       <r>   -19.5460    10.9213    40.0000 </r>
       <r>   -19.3629     1.9476    40.3567 </r>
       <r>   -19.1798     0.0000    42.0000 </r>
       <r>   -18.9966     0.0000    42.0000 </r>
       <r>   -18.8135     0.0000    42.0000 </r>
       <r>   -18.6304     0.0000    44.0000 </r>
       <r>   -18.4472    10.9213    46.0000 </r>
       <r>   -18.2641     0.0004    46.0001 </r>
       <r>   -18.0810     0.0000    48.0000 </r>
       <r>   -17.8979     6.4104    51.1739 </r>
       <r>   -17.7147     0.0350    52.0064 </r>
       <r>   -17.5316     0.0000    56.0000 </r>
       <r>   -17.3485    10.8841    57.9932 </r>
       <r>   -17.1654     0.0000    58.0000 </r>
       <r>   -16.9822     0.0000    58.0000 </r>
       <r>   -16.7991     0.0000    60.0000 </r>
       <r>   -16.6160    10.9213    62.0000 </r>
       <r>   -16.4328     0.0000    62.0000 </r>
       <r>   -16.2497     0.0000    62.0000 </r>
       <r>   -16.0666     0.0000    62.0000 </r>
       <r>   -15.8835    10.9213    64.0000 </r>
       <r>   -15.7003     0.0311    64.0057 </r>
       <r>   -15.5172     0.0000    66.0000 </r>
       <r>   -15.3341    10.8980    67.9957 </r>
       <r>   -15.1509    10.9213    70.0000 </r>
       <r>   -14.9678     0.0000    70.0000 </r>
       <r>   -14.7847    10.9214    72.0000 </r>
       <r>   -14.6016     0.0000    76.0000 </r>
       <r>   -14.4184    10.9213    78.0000 </r>
       <r>   -14.2353    10.9213    80.0000 </r>
       <r>   -14.0522    10.9214    84.0000 </r>
       <r>   -13.8691     0.6197    88.1135 </r>
       <r>   -13.6859     0.0000    90.0000 </r>
       <r>   -13.5028     0.0000    90.0000 </r>
       <r>   -13.3197    10.9215    96.0000 </r>
       <r>   -13.1365    10.9213   100.0000 </r>
       <r>   -12.9534    10.9213   104.0000 </r>
       <r>   -12.7703    11.3111   106.0714 </r>
       <r>   -12.5872     0.0000   108.0000 </r>
       <r>   -12.4040    10.9213   112.0000 </r>
       <r>   -12.2209     7.3906   115.3534 </r>
       <r>   -12.0378    10.9213   118.0000 </r>
       <r>   -11.8546     0.0000   120.0000 </r>
       <r>   -11.6715    10.9213   122.0000 </r>
       <r>   -11.4884     8.3858   123.5357 </r>
       <r>   -11.3053    10.9054   125.9971 </r>
       <r>   -11.1221    10.9213   130.0000 </r>
       <r>   -10.9390     0.0000   130.0000 </r>
       <r>   -10.7559    10.9213   134.0000 </r>
       <r>   -10.5728    21.8408   139.9997 </r>
       <r>   -10.3896     0.0000   140.0000 </r>
       <r>   -10.2065     0.0000   140.0000 </r>
       <r>   -10.0234    21.8296   143.9976 </r>
       <r>    -9.8402    11.4107   146.0896 </r>
       <r>    -9.6571    10.9213   152.0000 </r>
       <r>    -9.4740     9.8145   153.7973 </r>
       <r>    -9.2909     0.0000   154.0000 </r>
       <r>    -9.1077     0.0000   154.0000 </r>
       <r>    -8.9246     0.0000   156.0000 </r>
       <r>    -8.7415    10.9213   158.0000 </r>
       <r>    -8.5583     0.0000   158.0000 </r>
       <r>    -8.3752     0.0000   160.0000 </r>
       <r>    -8.1921     0.0000   160.0000 </r>
       <r>    -8.0090     0.0000   160.0000 </r>
       <r>    -7.8258     0.0000   160.0000 </r>
       <r>    -7.6427     0.0000   160.0000 </r>
       <r>    -7.4596     0.0000   162.0000 </r>
       <r>    -7.2765     0.1162   164.0213 </r>
       <r>    -7.0933     0.0000   166.0000 </r>
       <r>    -6.9102     0.0000   166.0000 </r>
       <r>    -6.7271     0.0000   166.0000 </r>
       <r>    -6.5439     0.0000   166.0000 </r>
       <r>    -6.3608     0.0000   166.0000 </r>
       <r>    -6.1777     0.0000   166.0000 </r>
       <r>    -5.9946     0.0000   166.0000 </r>
       <r>    -5.8114     1.2888   166.2360 </r>
       <r>    -5.6283     0.0000   168.0000 </r>
       <r>    -5.4452     0.0000   168.0000 </r>
       <r>    -5.2620     0.0000   168.0000 </r>
       <r>    -5.0789     9.9373   169.8198 </r>
       <r>    -4.8958     0.0002   170.0000 </r>
       <r>    -4.7127     0.0000   172.0000 </r>
       <r>    -4.5295     0.0000   172.0000 </r>
       <r>    -4.3464    10.9213   174.0000 </r>
       <r>    -4.1633    21.8426   178.0000 </r>
       <r>    -3.9802    21.8427   182.0000 </r>
       <r>    -3.7970     0.0000   182.0000 </r>
       <r>    -3.6139     0.8166   182.1495 </r>
       <r>    -3.4308    10.9202   185.9998 </r>
       <r>    -3.2476     0.0000   186.0000 </r>
       <r>    -3.0645     0.0000   188.0000 </r>
       <r>    -2.8814     0.2439   188.0447 </r>
       <r>    -2.6983     0.0000   192.0000 </r>
       <r>    -2.5151     0.0000   192.0000 </r>
       <r>    -2.3320     0.0000   192.0000 </r>
       <r>    -2.1489     0.0000   192.0000 </r>
       <r>    -1.9657     0.0300   192.0055 </r>
       <r>    -1.7826     0.0000   194.0000 </r>
       <r>    -1.5995     0.0000   196.0000 </r>
       <r>    -1.4164     0.0000   198.0000 </r>
       <r>    -1.2332    10.9211   202.0000 </r>
       <r>    -1.0501     0.9368   206.1716 </r>
       <r>    -0.8670    10.8828   209.9929 </r>
       <r>    -0.6839    11.2635   212.0627 </r>
       <r>    -0.5007    21.8427   220.0000 </r>
       <r>    -0.3176    10.9213   224.0000 </r>
       <r>    -0.1345     8.2492   227.5107 </r>
       <r>     0.0487    10.9213   234.0000 </r>
       <r>     0.2318    10.9213   238.0000 </r>
       <r>     0.4149    12.9470   244.3710 </r>
       <r>     0.5980    15.6434   250.8647 </r>
       <r>     0.7812     0.0000   256.0000 </r>
       <r>     0.9643     0.0000   256.0000 </r>
       <r>     1.1474     0.0000   256.0000 </r>
       <r>     1.3306     0.0000   256.0000 </r>
       <r>     1.5137     0.0000   256.0000 </r>
       <r>     1.6968     0.0000   256.0000 </r>
       <r>     1.8799     0.0000   256.0000 </r>
       <r>     2.0631     0.0000   256.0000 </r>
       <r>     2.2462     0.0000   256.0000 </r>
       <r>     2.4293     0.0000   256.0000 </r>
       <r>     2.6124     0.0000   256.0000 </r>
       <r>     2.7956     0.0000   256.0000 </r>
       <r>     2.9787     0.0000   256.0000 </r>
       <r>     3.1618     0.0000   256.0000 </r>
      </set>
     </set>
    </array>
   </total>
  </dos>
 </calculation>
 <structure name="finalpos" >
  <crystal>
   <varray name="basis" >
    <v>      20.00000000       0.00000000       0.00000000 </v>
    <v>       0.00000000      20.00000000       0.00000000 </v>
    <v>       0.00000000       0.00000000      20.00000000 </v>
   </varray>
   <i name="volume">   8000.00000000 </i>
   <varray name="rec_basis" >
    <v>       0.05000000       0.00000000       0.00000000 </v>
    <v>       0.00000000       0.05000000       0.00000000 </v>
    <v>       0.00000000       0.00000000       0.05000000 </v>
   </varray>
  </crystal>
  <varray name="positions" >
   <v>       0.39825425       0.53800137       0.60426081 </v>
   <v>       0.43793752       0.56561110       0.32757008 </v>
   <v>       0.45581208       0.52423376       0.38051465 </v>
   <v>       0.47372925       0.61530131       0.44986522 </v>
   <v>       0.45595175       0.65963312       0.39935201 </v>
   <v>       0.43785737       0.63472201       0.33675972 </v>
   <v>       0.52307882       0.32955005       0.67474498 </v>
   <v>       0.49710163       0.37190466       0.62618823 </v>
   <v>       0.60227374       0.41933300       0.60593616 </v>
   <v>       0.63096398       0.37761922       0.65422416 </v>
   <v>       0.73964927       0.52855915       0.53463181 </v>
   <v>       0.70082162       0.56612858       0.49044049 </v>
   <v>       0.63257913       0.55363620       0.48652424 </v>
   <v>       0.63952130       0.46927713       0.56732841 </v>
   <v>       0.70843899       0.47974495       0.57314689 </v>
   <v>       0.59134754       0.33224398       0.68903016 </v>
   <v>       0.36211554       0.48866484       0.56417415 </v>
   <v>       0.40790931       0.62211625       0.69058213 </v>
   <v>       0.47619960       0.62606623       0.67660612 </v>
   <v>       0.50295190       0.58590820       0.62668073 </v>
   <v>       0.29334713       0.47671938       0.56830116 </v>
   <v>       0.36904589       0.57756069       0.65398228 </v>
   <v>       0.37289802       0.40579857       0.48223443 </v>
   <v>       0.30486503       0.39173492       0.48443166 </v>
   <v>       0.26422003       0.42785518       0.52821594 </v>
   <v>       0.48989745       0.29510618       0.70074864 </v>
   <v>       0.61334240       0.29968355       0.72673159 </v>
   <v>       0.68424189       0.38076917       0.66478776 </v>
   <v>       0.54225374       0.36233861       0.46129841 </v>
   <v>       0.31579090       0.57306911       0.66420366 </v>
   <v>       0.44416348       0.37118871       0.61364770 </v>
   <v>       0.42392665       0.66833230       0.29622671 </v>
   <v>       0.45642762       0.71313270       0.40950260 </v>
   <v>       0.48809132       0.63358802       0.49907234 </v>
   <v>       0.56912778       0.41808713       0.41480476 </v>
   <v>       0.73767440       0.44963919       0.60776512 </v>
   <v>       0.72277620       0.60481012       0.45904817 </v>
   <v>       0.45570253       0.47012894       0.37468790 </v>
   <v>       0.40614333       0.37888556       0.44852541 </v>
   <v>       0.28443799       0.35306162       0.45202062 </v>
   <v>       0.79326502       0.53703787       0.53892527 </v>
   <v>       0.55589708       0.58769132       0.61440612 </v>
   <v>       0.42412006       0.54328620       0.27986105 </v>
   <v>       0.50894741       0.65984570       0.70400156 </v>
   <v>       0.26265982       0.50568523       0.60265428 </v>
   <v>       0.21072272       0.41813760       0.53105039 </v>
   <v>       0.60090654       0.58197914       0.45254259 </v>
   <v>       0.38544357       0.65296704       0.72941133 </v>
   <v>       0.47424490       0.54794204       0.44140236 </v>
   <v>       0.40180479       0.45306079       0.52108436 </v>
   <v>       0.53520702       0.41608490       0.59173240 </v>
   <v>       0.46544808       0.54254992       0.59041194 </v>
   <v>       0.60138410       0.50650621       0.52397638 </v>
   <v>       0.53073984       0.40562607       0.44215451 </v>
   <v>       0.50088568       0.48087016       0.51934246 </v>
  </varray>
  <varray name="selective"  type="logical" >
   <v type="logical" >  T  T  T </v>
   <v type="logical" >  T  T  T </v>
   <v type="logical" >  T  T  T </v>
   <v type="logical" >  T  T  T </v>
   <v type="logical" >  T  T  T </v>
   <v type="logical" >  T  T  T </v>
   <v type="logical" >  T  T  T </v>
   <v type="logical" >  T  T  T </v>
   <v type="logical" >  T  T  T </v>
   <v type="logical" >  T  T  T </v>
   <v type="logical" >  T  T  T </v>
   <v type="logical" >  T  T  T </v>
   <v type="logical" >  T  T  T </v>
   <v type="logical" >  T  T  T </v>
   <v type="logical" >  T  T  T </v>
   <v type="logical" >  T  T  T </v>
   <v type="logical" >  T  T  T </v>
   <v type="logical" >  T  T  T </v>
   <v type="logical" >  T  T  T </v>
   <v type="logical" >  T  T  T </v>
   <v type="logical" >  T  T  T </v>
   <v type="logical" >  T  T  T </v>
   <v type="logical" >  T  T  T </v>
   <v type="logical" >  T  T  T </v>
   <v type="logical" >  T  T  T </v>
   <v type="logical" >  T  T  T </v>
   <v type="logical" >  T  T  T </v>
   <v type="logical" >  T  T  T </v>
   <v type="logical" >  T  T  T </v>
   <v type="logical" >  T  T  T </v>
   <v type="logical" >  T  T  T </v>
   <v type="logical" >  T  T  T </v>
   <v type="logical" >  T  T  T </v>
   <v type="logical" >  T  T  T </v>
   <v type="logical" >  T  T  T </v>
   <v type="logical" >  T  T  T </v>
   <v type="logical" >  T  T  T </v>
   <v type="logical" >  T  T  T </v>
   <v type="logical" >  T  T  T </v>
   <v type="logical" >  T  T  T </v>
   <v type="logical" >  T  T  T </v>
   <v type="logical" >  T  T  T </v>
   <v type="logical" >  T  T  T </v>
   <v type="logical" >  T  T  T </v>
   <v type="logical" >  T  T  T </v>
   <v type="logical" >  T  T  T </v>
   <v type="logical" >  T  T  T </v>
   <v type="logical" >  T  T  T </v>
   <v type="logical" >  T  T  T </v>
   <v type="logical" >  T  T  T </v>
   <v type="logical" >  T  T  T </v>
   <v type="logical" >  T  T  T </v>
   <v type="logical" >  T  T  T </v>
   <v type="logical" >  T  T  T </v>
   <v type="logical" >  T  T  T </v>
  </varray>
  <nose>
   <v>      -3.00000000       0.00000000       0.00010000       0.00010000 </v>
  </nose>
 </structure>
</modeling>
