  55  55   0   0
  0.1454545E+03  0.2000000E-08  0.2000000E-08  0.2000000E-08  0.5000000E-15
  1.000000000000000E-004
  CAR 
 c2_oh2_ruthenium_mol                    
      3.22105848    -51.42024933  301     -6.93311789      1.00000000
    -51.420  0.0000E+00  0.0000E+00  0.0000E+00  0.0000E+00
    -51.238  0.0000E+00  0.0000E+00  0.0000E+00  0.0000E+00
    -51.056  0.0000E+00  0.0000E+00  0.0000E+00  0.0000E+00
    -50.874  0.0000E+00  0.0000E+00  0.0000E+00  0.0000E+00
    -50.692  0.0000E+00  0.0000E+00  0.0000E+00  0.0000E+00
    -50.510  0.0000E+00  0.0000E+00  0.0000E+00  0.0000E+00
    -50.327  0.0000E+00  0.0000E+00  0.0000E+00  0.0000E+00
    -50.145  0.0000E+00  0.0000E+00  0.0000E+00  0.0000E+00
    -49.963  0.0000E+00  0.0000E+00  0.0000E+00  0.0000E+00
    -49.781  0.0000E+00  0.0000E+00  0.0000E+00  0.0000E+00
    -49.599  0.0000E+00  0.0000E+00  0.0000E+00  0.0000E+00
    -49.417  0.0000E+00  0.0000E+00  0.0000E+00  0.0000E+00
    -49.235  0.0000E+00  0.0000E+00  0.0000E+00  0.0000E+00
    -49.052  0.0000E+00  0.0000E+00  0.0000E+00  0.0000E+00
    -48.870  0.1098E+02  0.1098E+02  0.2000E+01  0.2000E+01
    -48.688  0.0000E+00  0.0000E+00  0.4000E+01  0.4000E+01
    -48.506  0.1098E+02  0.1098E+02  0.6000E+01  0.6000E+01
    -48.324  0.0000E+00  0.0000E+00  0.6000E+01  0.6000E+01
    -48.142  0.0000E+00  0.0000E+00  0.6000E+01  0.6000E+01
    -47.960  0.0000E+00  0.0000E+00  0.6000E+01  0.6000E+01
    -47.777  0.0000E+00  0.0000E+00  0.6000E+01  0.6000E+01
    -47.595  0.0000E+00  0.0000E+00  0.6000E+01  0.6000E+01
    -47.413  0.0000E+00  0.0000E+00  0.6000E+01  0.6000E+01
    -47.231  0.0000E+00  0.0000E+00  0.6000E+01  0.6000E+01
    -47.049  0.0000E+00  0.0000E+00  0.6000E+01  0.6000E+01
    -46.867  0.0000E+00  0.0000E+00  0.6000E+01  0.6000E+01
    -46.685  0.0000E+00  0.0000E+00  0.6000E+01  0.6000E+01
    -46.503  0.0000E+00  0.0000E+00  0.6000E+01  0.6000E+01
    -46.320  0.0000E+00  0.0000E+00  0.6000E+01  0.6000E+01
    -46.138  0.0000E+00  0.0000E+00  0.6000E+01  0.6000E+01
    -45.956  0.0000E+00  0.0000E+00  0.6000E+01  0.6000E+01
    -45.774  0.0000E+00  0.0000E+00  0.6000E+01  0.6000E+01
    -45.592  0.0000E+00  0.0000E+00  0.6000E+01  0.6000E+01
    -45.410  0.0000E+00  0.0000E+00  0.6000E+01  0.6000E+01
    -45.228  0.0000E+00  0.0000E+00  0.6000E+01  0.6000E+01
    -45.045  0.0000E+00  0.0000E+00  0.6000E+01  0.6000E+01
    -44.863  0.0000E+00  0.0000E+00  0.6000E+01  0.6000E+01
    -44.681  0.0000E+00  0.0000E+00  0.6000E+01  0.6000E+01
    -44.499  0.0000E+00  0.0000E+00  0.6000E+01  0.6000E+01
    -44.317  0.0000E+00  0.0000E+00  0.6000E+01  0.6000E+01
    -44.135  0.0000E+00  0.0000E+00  0.6000E+01  0.6000E+01
    -43.953  0.0000E+00  0.0000E+00  0.6000E+01  0.6000E+01
    -43.770  0.0000E+00  0.0000E+00  0.6000E+01  0.6000E+01
    -43.588  0.0000E+00  0.0000E+00  0.6000E+01  0.6000E+01
    -43.406  0.0000E+00  0.0000E+00  0.6000E+01  0.6000E+01
    -43.224  0.0000E+00  0.0000E+00  0.6000E+01  0.6000E+01
    -43.042  0.0000E+00  0.0000E+00  0.6000E+01  0.6000E+01
    -42.860  0.0000E+00  0.0000E+00  0.6000E+01  0.6000E+01
    -42.678  0.0000E+00  0.0000E+00  0.6000E+01  0.6000E+01
    -42.496  0.0000E+00  0.0000E+00  0.6000E+01  0.6000E+01
    -42.313  0.0000E+00  0.0000E+00  0.6000E+01  0.6000E+01
    -42.131  0.0000E+00  0.0000E+00  0.6000E+01  0.6000E+01
    -41.949  0.0000E+00  0.0000E+00  0.6000E+01  0.6000E+01
    -41.767  0.0000E+00  0.0000E+00  0.6000E+01  0.6000E+01
    -41.585  0.0000E+00  0.0000E+00  0.6000E+01  0.6000E+01
    -41.403  0.0000E+00  0.0000E+00  0.6000E+01  0.6000E+01
    -41.221  0.0000E+00  0.0000E+00  0.6000E+01  0.6000E+01
    -41.038  0.0000E+00  0.0000E+00  0.6000E+01  0.6000E+01
    -40.856  0.0000E+00  0.0000E+00  0.6000E+01  0.6000E+01
    -40.674  0.0000E+00  0.0000E+00  0.6000E+01  0.6000E+01
    -40.492  0.0000E+00  0.0000E+00  0.6000E+01  0.6000E+01
    -40.310  0.0000E+00  0.0000E+00  0.6000E+01  0.6000E+01
    -40.128  0.0000E+00  0.0000E+00  0.6000E+01  0.6000E+01
    -39.946  0.0000E+00  0.0000E+00  0.6000E+01  0.6000E+01
    -39.763  0.0000E+00  0.0000E+00  0.6000E+01  0.6000E+01
    -39.581  0.0000E+00  0.0000E+00  0.6000E+01  0.6000E+01
    -39.399  0.0000E+00  0.0000E+00  0.6000E+01  0.6000E+01
    -39.217  0.0000E+00  0.0000E+00  0.6000E+01  0.6000E+01
    -39.035  0.0000E+00  0.0000E+00  0.6000E+01  0.6000E+01
    -38.853  0.0000E+00  0.0000E+00  0.6000E+01  0.6000E+01
    -38.671  0.0000E+00  0.0000E+00  0.6000E+01  0.6000E+01
    -38.488  0.0000E+00  0.0000E+00  0.6000E+01  0.6000E+01
    -38.306  0.0000E+00  0.0000E+00  0.6000E+01  0.6000E+01
    -38.124  0.0000E+00  0.0000E+00  0.6000E+01  0.6000E+01
    -37.942  0.0000E+00  0.0000E+00  0.6000E+01  0.6000E+01
    -37.760  0.0000E+00  0.0000E+00  0.6000E+01  0.6000E+01
    -37.578  0.0000E+00  0.0000E+00  0.6000E+01  0.6000E+01
    -37.396  0.0000E+00  0.0000E+00  0.6000E+01  0.6000E+01
    -37.214  0.0000E+00  0.0000E+00  0.6000E+01  0.6000E+01
    -37.031  0.0000E+00  0.0000E+00  0.6000E+01  0.6000E+01
    -36.849  0.0000E+00  0.0000E+00  0.6000E+01  0.6000E+01
    -36.667  0.0000E+00  0.0000E+00  0.6000E+01  0.6000E+01
    -36.485  0.0000E+00  0.0000E+00  0.6000E+01  0.6000E+01
    -36.303  0.0000E+00  0.0000E+00  0.6000E+01  0.6000E+01
    -36.121  0.0000E+00  0.0000E+00  0.6000E+01  0.6000E+01
    -35.939  0.0000E+00  0.0000E+00  0.6000E+01  0.6000E+01
    -35.756  0.0000E+00  0.0000E+00  0.6000E+01  0.6000E+01
    -35.574  0.0000E+00  0.0000E+00  0.6000E+01  0.6000E+01
    -35.392  0.0000E+00  0.0000E+00  0.6000E+01  0.6000E+01
    -35.210  0.0000E+00  0.0000E+00  0.6000E+01  0.6000E+01
    -35.028  0.0000E+00  0.0000E+00  0.6000E+01  0.6000E+01
    -34.846  0.0000E+00  0.0000E+00  0.6000E+01  0.6000E+01
    -34.664  0.0000E+00  0.0000E+00  0.6000E+01  0.6000E+01
    -34.481  0.0000E+00  0.0000E+00  0.6000E+01  0.6000E+01
    -34.299  0.0000E+00  0.0000E+00  0.6000E+01  0.6000E+01
    -34.117  0.0000E+00  0.0000E+00  0.6000E+01  0.6000E+01
    -33.935  0.0000E+00  0.0000E+00  0.6000E+01  0.6000E+01
    -33.753  0.0000E+00  0.0000E+00  0.6000E+01  0.6000E+01
    -33.571  0.0000E+00  0.0000E+00  0.6000E+01  0.6000E+01
    -33.389  0.0000E+00  0.0000E+00  0.6000E+01  0.6000E+01
    -33.206  0.0000E+00  0.0000E+00  0.6000E+01  0.6000E+01
    -33.024  0.0000E+00  0.0000E+00  0.6000E+01  0.6000E+01
    -32.842  0.0000E+00  0.0000E+00  0.6000E+01  0.6000E+01
    -32.660  0.0000E+00  0.0000E+00  0.6000E+01  0.6000E+01
    -32.478  0.0000E+00  0.0000E+00  0.6000E+01  0.6000E+01
    -32.296  0.0000E+00  0.0000E+00  0.6000E+01  0.6000E+01
    -32.114  0.0000E+00  0.0000E+00  0.6000E+01  0.6000E+01
    -31.932  0.0000E+00  0.0000E+00  0.6000E+01  0.6000E+01
    -31.749  0.0000E+00  0.0000E+00  0.6000E+01  0.6000E+01
    -31.567  0.0000E+00  0.0000E+00  0.6000E+01  0.6000E+01
    -31.385  0.0000E+00  0.0000E+00  0.6000E+01  0.6000E+01
    -31.203  0.0000E+00  0.0000E+00  0.6000E+01  0.6000E+01
    -31.021  0.0000E+00  0.0000E+00  0.6000E+01  0.6000E+01
    -30.839  0.0000E+00  0.0000E+00  0.6000E+01  0.6000E+01
    -30.657  0.0000E+00  0.0000E+00  0.6000E+01  0.6000E+01
    -30.474  0.0000E+00  0.0000E+00  0.6000E+01  0.6000E+01
    -30.292  0.0000E+00  0.0000E+00  0.6000E+01  0.6000E+01
    -30.110  0.0000E+00  0.0000E+00  0.6000E+01  0.6000E+01
    -29.928  0.0000E+00  0.0000E+00  0.6000E+01  0.6000E+01
    -29.746  0.0000E+00  0.0000E+00  0.6000E+01  0.6000E+01
    -29.564  0.0000E+00  0.0000E+00  0.6000E+01  0.6000E+01
    -29.382  0.0000E+00  0.0000E+00  0.6000E+01  0.6000E+01
    -29.199  0.3846E-02  0.3846E-02  0.6001E+01  0.6001E+01
    -29.017  0.0000E+00  0.0000E+00  0.8000E+01  0.8000E+01
    -28.835  0.0000E+00  0.0000E+00  0.8000E+01  0.8000E+01
    -28.653  0.0000E+00  0.0000E+00  0.8000E+01  0.8000E+01
    -28.471  0.0000E+00  0.0000E+00  0.8000E+01  0.8000E+01
    -28.289  0.0000E+00  0.0000E+00  0.8000E+01  0.8000E+01
    -28.107  0.0000E+00  0.0000E+00  0.8000E+01  0.8000E+01
    -27.924  0.0000E+00  0.0000E+00  0.8000E+01  0.8000E+01
    -27.742  0.0000E+00  0.0000E+00  0.8000E+01  0.8000E+01
    -27.560  0.0000E+00  0.0000E+00  0.8000E+01  0.8000E+01
    -27.378  0.0000E+00  0.0000E+00  0.8000E+01  0.8000E+01
    -27.196  0.0000E+00  0.0000E+00  0.1000E+02  0.1000E+02
    -27.014  0.0000E+00  0.0000E+00  0.1000E+02  0.1000E+02
    -26.832  0.1030E+02  0.1030E+02  0.1188E+02  0.1188E+02
    -26.650  0.1098E+02  0.1098E+02  0.1400E+02  0.1400E+02
    -26.467  0.0000E+00  0.0000E+00  0.1400E+02  0.1400E+02
    -26.285  0.0000E+00  0.0000E+00  0.1400E+02  0.1400E+02
    -26.103  0.7113E+01  0.7113E+01  0.1530E+02  0.1530E+02
    -25.921  0.0000E+00  0.0000E+00  0.1800E+02  0.1800E+02
    -25.739  0.0000E+00  0.0000E+00  0.1800E+02  0.1800E+02
    -25.557  0.0000E+00  0.0000E+00  0.1800E+02  0.1800E+02
    -25.375  0.0000E+00  0.0000E+00  0.1800E+02  0.1800E+02
    -25.192  0.0000E+00  0.0000E+00  0.1800E+02  0.1800E+02
    -25.010  0.0000E+00  0.0000E+00  0.1800E+02  0.1800E+02
    -24.828  0.0000E+00  0.0000E+00  0.1800E+02  0.1800E+02
    -24.646  0.0000E+00  0.0000E+00  0.1800E+02  0.1800E+02
    -24.464  0.0000E+00  0.0000E+00  0.1800E+02  0.1800E+02
    -24.282  0.0000E+00  0.0000E+00  0.1800E+02  0.1800E+02
    -24.100  0.0000E+00  0.0000E+00  0.1800E+02  0.1800E+02
    -23.917  0.0000E+00  0.0000E+00  0.2000E+02  0.2000E+02
    -23.735  0.0000E+00  0.0000E+00  0.2000E+02  0.2000E+02
    -23.553  0.0000E+00  0.0000E+00  0.2000E+02  0.2000E+02
    -23.371  0.0000E+00  0.0000E+00  0.2000E+02  0.2000E+02
    -23.189  0.0000E+00  0.0000E+00  0.2000E+02  0.2000E+02
    -23.007  0.0000E+00  0.0000E+00  0.2000E+02  0.2000E+02
    -22.825  0.0000E+00  0.0000E+00  0.2000E+02  0.2000E+02
    -22.642  0.0000E+00  0.0000E+00  0.2000E+02  0.2000E+02
    -22.460  0.1098E+02  0.1098E+02  0.2200E+02  0.2200E+02
    -22.278  0.1304E+02  0.1304E+02  0.2637E+02  0.2637E+02
    -22.096  0.2196E+02  0.2196E+02  0.3400E+02  0.3400E+02
    -21.914  0.0000E+00  0.0000E+00  0.3400E+02  0.3400E+02
    -21.732  0.0000E+00  0.0000E+00  0.3400E+02  0.3400E+02
    -21.550  0.0000E+00  0.0000E+00  0.3400E+02  0.3400E+02
    -21.368  0.0000E+00  0.0000E+00  0.3400E+02  0.3400E+02
    -21.185  0.0000E+00  0.0000E+00  0.3400E+02  0.3400E+02
    -21.003  0.0000E+00  0.0000E+00  0.3400E+02  0.3400E+02
    -20.821  0.0000E+00  0.0000E+00  0.3400E+02  0.3400E+02
    -20.639  0.1098E+02  0.1098E+02  0.3800E+02  0.3800E+02
    -20.457  0.0000E+00  0.0000E+00  0.3800E+02  0.3800E+02
    -20.275  0.0000E+00  0.0000E+00  0.3800E+02  0.3800E+02
    -20.093  0.0000E+00  0.0000E+00  0.3800E+02  0.3800E+02
    -19.910  0.0000E+00  0.0000E+00  0.3800E+02  0.3800E+02
    -19.728  0.0000E+00  0.0000E+00  0.3800E+02  0.3800E+02
    -19.546  0.0000E+00  0.0000E+00  0.3800E+02  0.3800E+02
    -19.364  0.0000E+00  0.0000E+00  0.3800E+02  0.3800E+02
    -19.182  0.0000E+00  0.0000E+00  0.4000E+02  0.4000E+02
    -19.000  0.0000E+00  0.0000E+00  0.4200E+02  0.4200E+02
    -18.818  0.0000E+00  0.0000E+00  0.4200E+02  0.4200E+02
    -18.635  0.1595E+02  0.1595E+02  0.4491E+02  0.4491E+02
    -18.453  0.2143E-11  0.2143E-11  0.4600E+02  0.4600E+02
    -18.271  0.0000E+00  0.0000E+00  0.5000E+02  0.5000E+02
    -18.089  0.0000E+00  0.0000E+00  0.5000E+02  0.5000E+02
    -17.907  0.0000E+00  0.0000E+00  0.5000E+02  0.5000E+02
    -17.725  0.0000E+00  0.0000E+00  0.5000E+02  0.5000E+02
    -17.543  0.1165E+02  0.1165E+02  0.5212E+02  0.5212E+02
    -17.361  0.0000E+00  0.0000E+00  0.5400E+02  0.5400E+02
    -17.178  0.2196E+02  0.2196E+02  0.5800E+02  0.5800E+02
    -16.996  0.0000E+00  0.0000E+00  0.5800E+02  0.5800E+02
    -16.814  0.1098E+02  0.1098E+02  0.6000E+02  0.6000E+02
    -16.632  0.6564E-07  0.6564E-07  0.6000E+02  0.6000E+02
    -16.450  0.0000E+00  0.0000E+00  0.6200E+02  0.6200E+02
    -16.268  0.0000E+00  0.0000E+00  0.6200E+02  0.6200E+02
    -16.086  0.0000E+00  0.0000E+00  0.6200E+02  0.6200E+02
    -15.903  0.1315E+01  0.1315E+01  0.6224E+02  0.6224E+02
    -15.721  0.1292E-06  0.1292E-06  0.6400E+02  0.6400E+02
    -15.539  0.1098E+02  0.1098E+02  0.6800E+02  0.6800E+02
    -15.357  0.0000E+00  0.0000E+00  0.6800E+02  0.6800E+02
    -15.175  0.0000E+00  0.0000E+00  0.6800E+02  0.6800E+02
    -14.993  0.3873E-07  0.3873E-07  0.6800E+02  0.6800E+02
    -14.811  0.0000E+00  0.0000E+00  0.7000E+02  0.7000E+02
    -14.628  0.2196E+02  0.2196E+02  0.7600E+02  0.7600E+02
    -14.446  0.0000E+00  0.0000E+00  0.7800E+02  0.7800E+02
    -14.264  0.0000E+00  0.0000E+00  0.7800E+02  0.7800E+02
    -14.082  0.1096E+02  0.1096E+02  0.8000E+02  0.8000E+02
    -13.900  0.2162E+02  0.2162E+02  0.8394E+02  0.8394E+02
    -13.718  0.2614E+02  0.2614E+02  0.8876E+02  0.8876E+02
    -13.536  0.2516E-06  0.2516E-06  0.9200E+02  0.9200E+02
    -13.353  0.8665E+00  0.8665E+00  0.9416E+02  0.9416E+02
    -13.171  0.1080E+02  0.1080E+02  0.9797E+02  0.9797E+02
    -12.989  0.9901E-04  0.9901E-04  0.1000E+03  0.1000E+03
    -12.807  0.1098E+02  0.1098E+02  0.1040E+03  0.1040E+03
    -12.625  0.0000E+00  0.0000E+00  0.1080E+03  0.1080E+03
    -12.443  0.1098E+02  0.1098E+02  0.1100E+03  0.1100E+03
    -12.261  0.1098E+02  0.1098E+02  0.1140E+03  0.1140E+03
    -12.079  0.1098E+02  0.1098E+02  0.1180E+03  0.1180E+03
    -11.896  0.0000E+00  0.0000E+00  0.1200E+03  0.1200E+03
    -11.714  0.0000E+00  0.0000E+00  0.1200E+03  0.1200E+03
    -11.532  0.0000E+00  0.0000E+00  0.1200E+03  0.1200E+03
    -11.350  0.5541E-11  0.5541E-11  0.1220E+03  0.1220E+03
    -11.168  0.1098E+02  0.1098E+02  0.1260E+03  0.1260E+03
    -10.986  0.2978E+02  0.2978E+02  0.1334E+03  0.1334E+03
    -10.804  0.0000E+00  0.0000E+00  0.1340E+03  0.1340E+03
    -10.621  0.3667E+01  0.3667E+01  0.1347E+03  0.1347E+03
    -10.439  0.0000E+00  0.0000E+00  0.1360E+03  0.1360E+03
    -10.257  0.0000E+00  0.0000E+00  0.1380E+03  0.1380E+03
    -10.075  0.2156E+02  0.2156E+02  0.1419E+03  0.1419E+03
     -9.893  0.2121E+01  0.2121E+01  0.1424E+03  0.1424E+03
     -9.711  0.2505E+02  0.2505E+02  0.1486E+03  0.1486E+03
     -9.529  0.0000E+00  0.0000E+00  0.1540E+03  0.1540E+03
     -9.346  0.0000E+00  0.0000E+00  0.1560E+03  0.1560E+03
     -9.164  0.0000E+00  0.0000E+00  0.1560E+03  0.1560E+03
     -8.982  0.0000E+00  0.0000E+00  0.1560E+03  0.1560E+03
     -8.800  0.0000E+00  0.0000E+00  0.1560E+03  0.1560E+03
     -8.618  0.0000E+00  0.0000E+00  0.1560E+03  0.1560E+03
     -8.436  0.0000E+00  0.0000E+00  0.1560E+03  0.1560E+03
     -8.254  0.1098E+02  0.1098E+02  0.1600E+03  0.1600E+03
     -8.071  0.0000E+00  0.0000E+00  0.1600E+03  0.1600E+03
     -7.889  0.0000E+00  0.0000E+00  0.1600E+03  0.1600E+03
     -7.707  0.0000E+00  0.0000E+00  0.1600E+03  0.1600E+03
     -7.525  0.0000E+00  0.0000E+00  0.1600E+03  0.1600E+03
     -7.343  0.5548E-06  0.5550E-06  0.1600E+03  0.1600E+03
     -7.161  0.4200E-01  0.4200E-01  0.1620E+03  0.1620E+03
     -6.979  0.1098E+02  0.1098E+02  0.1660E+03  0.1660E+03
     -6.797  0.0000E+00  0.0000E+00  0.1660E+03  0.1660E+03
     -6.614  0.0000E+00  0.0000E+00  0.1660E+03  0.1660E+03
     -6.432  0.0000E+00  0.0000E+00  0.1660E+03  0.1660E+03
     -6.250  0.0000E+00  0.0000E+00  0.1660E+03  0.1660E+03
     -6.068  0.0000E+00  0.0000E+00  0.1660E+03  0.1660E+03
     -5.886  0.0000E+00  0.0000E+00  0.1660E+03  0.1660E+03
     -5.704  0.0000E+00  0.0000E+00  0.1660E+03  0.1660E+03
     -5.522  0.0000E+00  0.0000E+00  0.1660E+03  0.1660E+03
     -5.339  0.7184E-05  0.7184E-05  0.1660E+03  0.1660E+03
     -5.157  0.0000E+00  0.0000E+00  0.1680E+03  0.1680E+03
     -4.975  0.1098E+02  0.1098E+02  0.1700E+03  0.1700E+03
     -4.793  0.1098E+02  0.1098E+02  0.1740E+03  0.1740E+03
     -4.611  0.0000E+00  0.0000E+00  0.1740E+03  0.1740E+03
     -4.429  0.0000E+00  0.0000E+00  0.1740E+03  0.1740E+03
     -4.247  0.1860E-05  0.1860E-05  0.1740E+03  0.1740E+03
     -4.064  0.3766E-05  0.3766E-05  0.1760E+03  0.1760E+03
     -3.882  0.1586E+02  0.1586E+02  0.1809E+03  0.1809E+03
     -3.700  0.1098E+02  0.1098E+02  0.1840E+03  0.1840E+03
     -3.518  0.0000E+00  0.0000E+00  0.1840E+03  0.1840E+03
     -3.336  0.0000E+00  0.0000E+00  0.1840E+03  0.1840E+03
     -3.154  0.0000E+00  0.0000E+00  0.1840E+03  0.1840E+03
     -2.972  0.0000E+00  0.0000E+00  0.1860E+03  0.1860E+03
     -2.789  0.1098E+02  0.1098E+02  0.1880E+03  0.1880E+03
     -2.607  0.1093E+02  0.1093E+02  0.1920E+03  0.1920E+03
     -2.425  0.0000E+00  0.0000E+00  0.1920E+03  0.1920E+03
     -2.243  0.0000E+00  0.0000E+00  0.1920E+03  0.1920E+03
     -2.061  0.0000E+00  0.0000E+00  0.1920E+03  0.1920E+03
     -1.879  0.1098E+02  0.1098E+02  0.1940E+03  0.1940E+03
     -1.697  0.1346E-05  0.1346E-05  0.1940E+03  0.1940E+03
     -1.515  0.0000E+00  0.0000E+00  0.1980E+03  0.1980E+03
     -1.332  0.1098E+02  0.1098E+02  0.2000E+03  0.2000E+03
     -1.150  0.2899E+02  0.2899E+02  0.2053E+03  0.2053E+03
     -0.968  0.1094E+02  0.1094E+02  0.2080E+03  0.2080E+03
     -0.786  0.1062E+02  0.1062E+02  0.2119E+03  0.2119E+03
     -0.604  0.1098E+02  0.1098E+02  0.2160E+03  0.2160E+03
     -0.422  0.4684E+01  0.4684E+01  0.2189E+03  0.2189E+03
     -0.240  0.0000E+00  0.0000E+00  0.2260E+03  0.2260E+03
     -0.057  0.1585E+02  0.1585E+02  0.2309E+03  0.2309E+03
      0.125  0.1095E+02  0.1095E+02  0.2360E+03  0.2360E+03
      0.307  0.1098E+02  0.1098E+02  0.2380E+03  0.2380E+03
      0.489  0.1751E+02  0.1750E+02  0.2452E+03  0.2452E+03
      0.671  0.2187E+02  0.2187E+02  0.2520E+03  0.2520E+03
      0.853  0.0000E+00  0.0000E+00  0.2560E+03  0.2560E+03
      1.035  0.0000E+00  0.0000E+00  0.2560E+03  0.2560E+03
      1.218  0.0000E+00  0.0000E+00  0.2560E+03  0.2560E+03
      1.400  0.0000E+00  0.0000E+00  0.2560E+03  0.2560E+03
      1.582  0.0000E+00  0.0000E+00  0.2560E+03  0.2560E+03
      1.764  0.0000E+00  0.0000E+00  0.2560E+03  0.2560E+03
      1.946  0.0000E+00  0.0000E+00  0.2560E+03  0.2560E+03
      2.128  0.0000E+00  0.0000E+00  0.2560E+03  0.2560E+03
      2.310  0.0000E+00  0.0000E+00  0.2560E+03  0.2560E+03
      2.493  0.0000E+00  0.0000E+00  0.2560E+03  0.2560E+03
      2.675  0.0000E+00  0.0000E+00  0.2560E+03  0.2560E+03
      2.857  0.0000E+00  0.0000E+00  0.2560E+03  0.2560E+03
      3.039  0.0000E+00  0.0000E+00  0.2560E+03  0.2560E+03
      3.221  0.0000E+00  0.0000E+00  0.2560E+03  0.2560E+03
