   55   55    1    2
  0.1454545E+03  0.2000000E-08  0.2000000E-08  0.2000000E-08  0.5000000E-15
  1.000000000000000E-004
  CAR 
 c2_oh2_ruthenium_mol                    
    166      1    128
 
  0.0000000E+00  0.0000000E+00  0.0000000E+00  0.1000000E+01
    1      -48.936553    -48.936554
    2      -48.821516    -48.821516
    3      -48.578890    -48.578890
    4      -29.175484    -29.175484
    5      -27.309657    -27.309657
    6      -26.842556    -26.842556
    7      -26.706075    -26.706075
    8      -26.105792    -26.105792
    9      -26.049390    -26.049390
   10      -24.015093    -24.015092
   11      -22.500247    -22.500247
   12      -22.400988    -22.400988
   13      -22.335838    -22.335838
   14      -22.271937    -22.271937
   15      -22.227998    -22.227998
   16      -22.155139    -22.155139
   17      -22.119763    -22.119763
   18      -20.750913    -20.750913
   19      -20.717973    -20.717973
   20      -19.289713    -19.289713
   21      -19.106058    -19.106058
   22      -18.684366    -18.684366
   23      -18.634625    -18.634625
   24      -18.401999    -18.401999
   25      -18.369353    -18.369353
   26      -17.567394    -17.567394
   27      -17.531688    -17.531688
   28      -17.258130    -17.258130
   29      -17.220849    -17.220849
   30      -16.890637    -16.890636
   31      -16.591642    -16.591642
   32      -15.895081    -15.895081
   33      -15.681778    -15.681778
   34      -15.585477    -15.585477
   35      -14.951772    -14.951772
   36      -14.717528    -14.717528
   37      -14.686073    -14.686074
   38      -14.664683    -14.664683
   39      -14.595816    -14.595816
   40      -14.102435    -14.102435
   41      -13.959859    -13.959859
   42      -13.913086    -13.913086
   43      -13.785818    -13.785819
   44      -13.756211    -13.756211
   45      -13.715592    -13.715592
   46      -13.637240    -13.637240
   47      -13.496953    -13.496953
   48      -13.343484    -13.343484
   49      -13.186423    -13.186423
   50      -13.083926    -13.083926
   51      -12.958876    -12.958876
   52      -12.841882    -12.841882
   53      -12.733937    -12.733937
   54      -12.711300    -12.711300
   55      -12.509477    -12.509478
   56      -12.403811    -12.403812
   57      -12.339666    -12.339666
   58      -12.183706    -12.183706
   59      -12.103554    -12.103554
   60      -12.027345    -12.027345
   61      -11.449358    -11.449358
   62      -11.299546    -11.299546
   63      -11.198173    -11.198173
   64      -11.106519    -11.106519
   65      -11.043587    -11.043587
   66      -11.030031    -11.030031
   67      -10.989635    -10.989635
   68      -10.618372    -10.618372
   69      -10.377976    -10.377976
   70      -10.095924    -10.095924
   71      -10.087820    -10.087820
   72       -9.886730     -9.886730
   73       -9.786255     -9.786255
   74       -9.755140     -9.755141
   75       -9.706618     -9.706618
   76       -9.666018     -9.666018
   77       -9.627236     -9.627236
   78       -9.448157     -9.448157
   79       -8.348780     -8.348780
   80       -8.303434     -8.303434
   81       -7.305276     -7.305276
   82       -7.141930     -7.141931
   83       -7.002965     -7.002965
   84       -5.305200     -5.305200
   85       -5.002370     -5.002370
   86       -4.944010     -4.944010
   87       -4.831969     -4.831969
   88       -4.210521     -4.210521
   89       -4.029339     -4.029339
   90       -3.933643     -3.933643
   91       -3.881314     -3.881314
   92       -3.730697     -3.730697
   93       -3.086663     -3.086663
   94       -2.848846     -2.848846
   95       -2.725492     -2.725492
   96       -2.625693     -2.625693
   97       -1.954168     -1.954168
   98       -1.660163     -1.660162
   99       -1.648643     -1.648644
  100       -1.404873     -1.404872
  101       -1.226920     -1.226919
  102       -1.183115     -1.183114
  103       -1.152783     -1.152781
  104       -0.987284     -0.987284
  105       -0.868450     -0.868449
  106       -0.798965     -0.798964
  107       -0.745560     -0.745556
  108       -0.669508     -0.669506
  109       -0.538797     -0.538795
  110       -0.420387     -0.420386
  111       -0.389702     -0.389700
  112       -0.341614     -0.341612
  113       -0.332657     -0.332655
  114       -0.158028     -0.158025
  115       -0.134682     -0.134678
  116       -0.056420     -0.056415
  117        0.034308      0.034310
  118        0.104844      0.104845
  119        0.253651      0.253653
  120        0.339122      0.339123
  121        0.353390      0.353394
  122        0.444607      0.444610
  123        0.487306      0.487313
  124        0.569745      0.569745
  125        0.609488      0.609483
  126        0.654108      0.654113
  127        0.701317      0.701331
  128        0.737363      0.736732
