       N       E                     dE             d eps       ncg     rms          rms(c)
DAV:   1     0.909164242085E+03    0.90916E+03   -0.58812E+04   768   0.974E+02
DAV:   2    -0.695625761368E+02   -0.97873E+03   -0.97234E+03  1024   0.160E+02
DAV:   3    -0.391537835572E+03   -0.32198E+03   -0.32137E+03   768   0.849E+01
DAV:   4    -0.411711582570E+03   -0.20174E+02   -0.20142E+02   704   0.281E+01
DAV:   5    -0.411991604423E+03   -0.28002E+00   -0.27944E+00   832   0.362E+00    0.578E+01
DAV:   6    -0.394542717873E+03    0.17449E+02   -0.40756E+02   576   0.234E+01    0.395E+01
DAV:   7    -0.383414495544E+03    0.11128E+02   -0.23031E+01   704   0.215E+01    0.241E+01
DAV:   8    -0.378981797921E+03    0.44327E+01   -0.17680E+01   768   0.105E+01    0.985E+00
DAV:   9    -0.377746050473E+03    0.12357E+01   -0.40977E+00   768   0.450E+00    0.372E+00
DAV:  10    -0.377680753303E+03    0.65297E-01   -0.58981E-01   768   0.182E+00    0.255E+00
DAV:  11    -0.377570009915E+03    0.11074E+00   -0.91141E-02   768   0.818E-01    0.136E+00
DAV:  12    -0.377485108227E+03    0.84902E-01   -0.89064E-02   768   0.706E-01    0.680E-01
DAV:  13    -0.377457075251E+03    0.28033E-01   -0.19398E-02   768   0.372E-01    0.519E-01
DAV:  14    -0.377440312936E+03    0.16762E-01   -0.28788E-02   768   0.422E-01    0.295E-01
DAV:  15    -0.377443317783E+03   -0.30048E-02   -0.59456E-03   768   0.221E-01    0.238E-01
DAV:  16    -0.377452789621E+03   -0.94718E-02   -0.15433E-03   768   0.126E-01    0.132E-01
DAV:  17    -0.377459101686E+03   -0.63121E-02   -0.13090E-03   768   0.106E-01    0.845E-02
DAV:  18    -0.377463270570E+03   -0.41689E-02   -0.48993E-04   768   0.642E-02    0.704E-02
DAV:  19    -0.377467992398E+03   -0.47218E-02   -0.36960E-04   768   0.576E-02    0.407E-02
DAV:  20    -0.377470452507E+03   -0.24601E-02   -0.12459E-04   768   0.334E-02    0.261E-02
DAV:  21    -0.377472124634E+03   -0.16721E-02   -0.57123E-05   768   0.220E-02    0.167E-02
DAV:  22    -0.377473395837E+03   -0.12712E-02   -0.34900E-05   768   0.158E-02    0.106E-02
DAV:  23    -0.377473949108E+03   -0.55327E-03   -0.94093E-06   640   0.791E-03    0.766E-03
DAV:  24    -0.377474428754E+03   -0.47965E-03   -0.11247E-05   640   0.705E-03    0.379E-03
DAV:  25    -0.377474638439E+03   -0.20968E-03   -0.37994E-06   640   0.398E-03    0.224E-03
DAV:  26    -0.377474795174E+03   -0.15674E-03   -0.26471E-06   640   0.306E-03    0.184E-03
DAV:  27    -0.377474875706E+03   -0.80532E-04   -0.12104E-06   640   0.202E-03    0.115E-03
DAV:  28    -0.377474923013E+03   -0.47307E-04   -0.64588E-07   640   0.147E-03    0.553E-04
DAV:  29    -0.377474942770E+03   -0.19756E-04   -0.12355E-07   640   0.852E-04    0.446E-04
DAV:  30    -0.377474954764E+03   -0.11994E-04   -0.98254E-09   640   0.624E-04    0.242E-04
DAV:  31    -0.377474962049E+03   -0.72847E-05    0.41805E-08   640   0.487E-04
   1 F= -.37747496E+03 E0= -.37747496E+03  d E =-.366316E-23  mag=    -0.0000
