 vasp.5.3.5 31Mar14 (build Apr 08 2014 12:00:03) complex                        
  
 VASP binary ID code NSC-NSCPATCH-BUILD02 date 2017.03.15  18:38:23
 running on   64 total cores
 distrk:  each k-point on   64 cores,    1 groups
 distr:  one band on NCORES_PER_BAND=   1 cores,   64 groups


--------------------------------------------------------------------------------------------------------


 INCAR:
 POTCAR:    PAW_PBE C_h 06Feb2004                 
 POTCAR:    PAW_PBE C_h 06Feb2004                 
 POTCAR:    PAW_PBE H 15Jun2001                   
 POTCAR:    PAW_PBE N_h 06Feb2004                 
 POTCAR:    PAW_PBE O_h 06Feb2004                 
 POTCAR:    PAW_PBE Ru_pv 28Jan2005               

 ----------------------------------------------------------------------------- 
|                                                                             |
|           W    W    AA    RRRRR   N    N  II  N    N   GGGG   !!!           |
|           W    W   A  A   R    R  NN   N  II  NN   N  G    G  !!!           |
|           W    W  A    A  R    R  N N  N  II  N N  N  G       !!!           |
|           W WW W  AAAAAA  RRRRR   N  N N  II  N  N N  G  GGG   !            |
|           WW  WW  A    A  R   R   N   NN  II  N   NN  G    G                |
|           W    W  A    A  R    R  N    N  II  N    N   GGGG   !!!           |
|                                                                             |
|      For optimal performance we recommend to set                            |
|        NCORE= 4 - approx SQRT( number of cores)                             |
|      NCORE specifies how many cores store one orbital (NPAR=cpu/NCORE).     |
|      This setting can  greatly improve the performance of VASP for DFT.     |
|      The default, NPAR=number of cores might be grossly inefficient         |
|      on modern multi-core architectures or massively parallel machines.     |
|      Do your own testing !!!!                                               |
|      Unfortunately you need to use the default for GW and RPA calculations. |
|      (for HF NCORE is supported but not extensively tested yet)             |
|                                                                             |
 ----------------------------------------------------------------------------- 

 POTCAR:    PAW_PBE C_h 06Feb2004                 
   VRHFIN =C: s2p2                                                              
   LEXCH  = PE                                                                  
   EATOM  =   147.1560 eV,   10.8157 Ry                                         
                                                                                
   TITEL  = PAW_PBE C_h 06Feb2004                                               
   LULTRA =        F    use ultrasoft PP ?                                      
   IUNSCR =        1    unscreen: 0-lin 1-nonlin 2-no                           
   RPACOR =    0.800    partial core radius                                     
   POMASS =   12.011; ZVAL   =    4.000    mass and valenz                      
   RCORE  =    1.100    outmost cutoff radius                                   
   RWIGS  =    1.630; RWIGS  =    0.863    wigner-seitz radius (au A)           
   ENMAX  =  700.000; ENMIN  =  500.000 eV                                      
   ICORE  =        2    local potential                                         
   LCOR   =        T    correct aug charges                                     
   LPAW   =        T    paw PP                                                  
   EAUG   =  946.768                                                            
   DEXC   =    0.000                                                            
   RMAX   =    1.128    core radius for proj-oper                               
   RAUG   =    1.300    factor for augmentation sphere                          
   RDEP   =    1.162    radius for radial grids                                 
   RDEPT  =    1.088    core radius for aug-charge                              
                                                                                
   Atomic configuration                                                         
    4 entries                                                                   
     n  l   j            E        occ.                                          
     1  0  0.50      -273.3789   2.0000                                         
     2  0  0.50       -13.7508   2.0000                                         
     2  1  0.50        -5.2854   2.0000                                         
     3  2  1.50        -5.4423   0.0000                                         
   Description                                                                  
     l       E           TYP  RCUT    TYP  RCUT                                 
     0    -13.7508458     23  1.100                                             
     0     -8.2022199     23  1.100                                             
     1     -5.2854383     23  1.100                                             
     1      1.1560700     23  1.100                                             
     2     -5.4423304      7  1.100                                             
  local pseudopotential read in
  partial core-charges read in
  partial kinetic energy density read in
  atomic valenz-charges read in
  non local Contribution for L=           0  read in
    real space projection operators read in
  non local Contribution for L=           0  read in
    real space projection operators read in
  non local Contribution for L=           1  read in
    real space projection operators read in
  non local Contribution for L=           1  read in
    real space projection operators read in
    PAW grid and wavefunctions read in
 
   number of l-projection  operators is LMAX  =           4
   number of lm-projection operators is LMMAX =           8
 
 POTCAR:    PAW_PBE C_h 06Feb2004                 
   VRHFIN =C: s2p2                                                              
   LEXCH  = PE                                                                  
   EATOM  =   147.1560 eV,   10.8157 Ry                                         
                                                                                
   TITEL  = PAW_PBE C_h 06Feb2004                                               
   LULTRA =        F    use ultrasoft PP ?                                      
   IUNSCR =        1    unscreen: 0-lin 1-nonlin 2-no                           
   RPACOR =    0.800    partial core radius                                     
   POMASS =   12.011; ZVAL   =    4.000    mass and valenz                      
   RCORE  =    1.100    outmost cutoff radius                                   
   RWIGS  =    1.630; RWIGS  =    0.863    wigner-seitz radius (au A)           
   ENMAX  =  700.000; ENMIN  =  500.000 eV                                      
   ICORE  =        2    local potential                                         
   LCOR   =        T    correct aug charges                                     
   LPAW   =        T    paw PP                                                  
   EAUG   =  946.768                                                            
   DEXC   =    0.000                                                            
   RMAX   =    1.128    core radius for proj-oper                               
   RAUG   =    1.300    factor for augmentation sphere                          
   RDEP   =    1.162    radius for radial grids                                 
   RDEPT  =    1.088    core radius for aug-charge                              
                                                                                
   Atomic configuration                                                         
    4 entries                                                                   
     n  l   j            E        occ.                                          
     1  0  0.50      -273.3789   2.0000                                         
     2  0  0.50       -13.7508   2.0000                                         
     2  1  0.50        -5.2854   2.0000                                         
     3  2  1.50        -5.4423   0.0000                                         
   Description                                                                  
     l       E           TYP  RCUT    TYP  RCUT                                 
     0    -13.7508458     23  1.100                                             
     0     -8.2022199     23  1.100                                             
     1     -5.2854383     23  1.100                                             
     1      1.1560700     23  1.100                                             
     2     -5.4423304      7  1.100                                             
  local pseudopotential read in
  partial core-charges read in
  partial kinetic energy density read in
  atomic valenz-charges read in
  non local Contribution for L=           0  read in
    real space projection operators read in
  non local Contribution for L=           0  read in
    real space projection operators read in
  non local Contribution for L=           1  read in
    real space projection operators read in
  non local Contribution for L=           1  read in
    real space projection operators read in
    PAW grid and wavefunctions read in
 
   number of l-projection  operators is LMAX  =           4
   number of lm-projection operators is LMMAX =           8
 
 POTCAR:    PAW_PBE H 15Jun2001                   
   VRHFIN =H: ultrasoft test                                                    
   LEXCH  = PE                                                                  
   EATOM  =    12.4884 eV,    0.9179 Ry                                         
                                                                                
   TITEL  = PAW_PBE H 15Jun2001                                                 
   LULTRA =        F    use ultrasoft PP ?                                      
   IUNSCR =        0    unscreen: 0-lin 1-nonlin 2-no                           
   RPACOR =    0.000    partial core radius                                     
   POMASS =    1.000; ZVAL   =    1.000    mass and valenz                      
   RCORE  =    1.100    outmost cutoff radius                                   
   RWIGS  =    0.700; RWIGS  =    0.370    wigner-seitz radius (au A)           
   ENMAX  =  250.000; ENMIN  =  200.000 eV                                      
   RCLOC  =    0.701    cutoff for local pot                                    
   LCOR   =        T    correct aug charges                                     
   LPAW   =        T    paw PP                                                  
   EAUG   =  400.000                                                            
   RMAX   =    1.123    core radius for proj-oper                               
   RAUG   =    1.200    factor for augmentation sphere                          
   RDEP   =    1.112    radius for radial grids                                 
   RDEPT  =    0.926    core radius for aug-charge                              
                                                                                
   Atomic configuration                                                         
    2 entries                                                                   
     n  l   j            E        occ.                                          
     1  0  0.50        -6.4927   1.0000                                         
     2  1  0.50        -3.4015   0.0000                                         
   Description                                                                  
     l       E           TYP  RCUT    TYP  RCUT                                 
     0     -6.4927494     23  1.100                                             
     0      6.8029130     23  1.100                                             
     1     -4.0817478     23  1.100                                             
  local pseudopotential read in
  atomic valenz-charges read in
  non local Contribution for L=           0  read in
    real space projection operators read in
  non local Contribution for L=           0  read in
    real space projection operators read in
  non local Contribution for L=           1  read in
    real space projection operators read in
    PAW grid and wavefunctions read in
 
   number of l-projection  operators is LMAX  =           3
   number of lm-projection operators is LMMAX =           5
 
 POTCAR:    PAW_PBE N_h 06Feb2004                 
   VRHFIN =N: s2p3                                                              
   LEXCH  = PE                                                                  
   EATOM  =   264.5486 eV,   19.4438 Ry                                         
                                                                                
   TITEL  = PAW_PBE N_h 06Feb2004                                               
   LULTRA =        F    use ultrasoft PP ?                                      
   IUNSCR =        1    unscreen: 0-lin 1-nonlin 2-no                           
   RPACOR =    0.800    partial core radius                                     
   POMASS =   14.001; ZVAL   =    5.000    mass and valenz                      
   RCORE  =    1.100    outmost cutoff radius                                   
   RWIGS  =    1.480; RWIGS  =    0.783    wigner-seitz radius (au A)           
   ENMAX  =  700.000; ENMIN  =  500.000 eV                                      
   ICORE  =        2    local potential                                         
   LCOR   =        T    correct aug charges                                     
   LPAW   =        T    paw PP                                                  
   EAUG   =  904.640                                                            
   DEXC   =    0.000                                                            
   RMAX   =    1.127    core radius for proj-oper                               
   RAUG   =    1.300    factor for augmentation sphere                          
   RDEP   =    1.115    radius for radial grids                                 
   RDEPT  =    1.106    core radius for aug-charge                              
                                                                                
   Atomic configuration                                                         
    4 entries                                                                   
     n  l   j            E        occ.                                          
     1  0  0.50      -384.7179   2.0000                                         
     2  0  0.50       -18.5828   2.0000                                         
     2  1  0.50        -7.0898   3.0000                                         
     3  2  1.50        -6.8029   0.0000                                         
   Description                                                                  
     l       E           TYP  RCUT    TYP  RCUT                                 
     0    -18.5828117     23  1.100                                             
     0    -15.0750597     23  1.100                                             
     1     -7.0897851     23  1.100                                             
     1     -1.9663412     23  1.100                                             
     2     -6.8029130      7  1.100                                             
  local pseudopotential read in
  partial core-charges read in
  partial kinetic energy density read in
  kinetic energy density of atom read in
  atomic valenz-charges read in
  non local Contribution for L=           0  read in
    real space projection operators read in
  non local Contribution for L=           0  read in
    real space projection operators read in
  non local Contribution for L=           1  read in
    real space projection operators read in
  non local Contribution for L=           1  read in
    real space projection operators read in
    PAW grid and wavefunctions read in
 
   number of l-projection  operators is LMAX  =           4
   number of lm-projection operators is LMMAX =           8
 
 POTCAR:    PAW_PBE O_h 06Feb2004                 
   VRHFIN =O: s2p4                                                              
   LEXCH  = PE                                                                  
   EATOM  =   432.3788 eV,   31.7789 Ry                                         
                                                                                
   TITEL  = PAW_PBE O_h 06Feb2004                                               
   LULTRA =        F    use ultrasoft PP ?                                      
   IUNSCR =        1    unscreen: 0-lin 1-nonlin 2-no                           
   RPACOR =    0.800    partial core radius                                     
   POMASS =   16.000; ZVAL   =    6.000    mass and valenz                      
   RCORE  =    1.100    outmost cutoff radius                                   
   RWIGS  =    1.400; RWIGS  =    0.741    wigner-seitz radius (au A)           
   ENMAX  =  700.000; ENMIN  =  500.000 eV                                      
   ICORE  =        2    local potential                                         
   LCOR   =        T    correct aug charges                                     
   LPAW   =        T    paw PP                                                  
   EAUG   =  888.804                                                            
   DEXC   =    0.000                                                            
   RMAX   =    1.128    core radius for proj-oper                               
   RAUG   =    1.300    factor for augmentation sphere                          
   RDEP   =    1.125    radius for radial grids                                 
   RDEPT  =    1.088    core radius for aug-charge                              
                                                                                
   Atomic configuration                                                         
    4 entries                                                                   
     n  l   j            E        occ.                                          
     1  0  0.50      -514.6923   2.0000                                         
     2  0  0.50       -23.9615   2.0000                                         
     2  1  0.50        -9.0305   4.0000                                         
     3  2  1.50        -9.5241   0.0000                                         
   Description                                                                  
     l       E           TYP  RCUT    TYP  RCUT                                 
     0    -23.9615319     23  1.100                                             
     0    -25.3221145     23  1.100                                             
     1     -9.0304911     23  1.100                                             
     1     -5.4802209     23  1.100                                             
     2     -9.5240782      7  1.100                                             
  local pseudopotential read in
  partial core-charges read in
  partial kinetic energy density read in
  atomic valenz-charges read in
  non local Contribution for L=           0  read in
    real space projection operators read in
  non local Contribution for L=           0  read in
    real space projection operators read in
  non local Contribution for L=           1  read in
    real space projection operators read in
  non local Contribution for L=           1  read in
    real space projection operators read in
    PAW grid and wavefunctions read in
 
   number of l-projection  operators is LMAX  =           4
   number of lm-projection operators is LMMAX =           8
 
 POTCAR:    PAW_PBE Ru_pv 28Jan2005               
   VRHFIN =Ru: 4p5s4d                                                           
   LEXCH  = PE                                                                  
   EATOM  =  1873.4746 eV,  137.6965 Ry                                         
                                                                                
   TITEL  = PAW_PBE Ru_pv 28Jan2005                                             
   LULTRA =        F    use ultrasoft PP ?                                      
   IUNSCR =        1    unscreen: 0-lin 1-nonlin 2-no                           
   RPACOR =    2.170    partial core radius                                     
   POMASS =  101.070; ZVAL   =   14.000    mass and valenz                      
   RCORE  =    2.500    outmost cutoff radius                                   
   RWIGS  =    2.650; RWIGS  =    1.402    wigner-seitz radius (au A)           
   ENMAX  =  240.049; ENMIN  =  180.037 eV                                      
   ICORE  =        3    local potential                                         
   LCOR   =        T    correct aug charges                                     
   LPAW   =        T    paw PP                                                  
   EAUG   =  430.792                                                            
   DEXC   =    0.000                                                            
   RMAX   =    2.546    core radius for proj-oper                               
   RAUG   =    1.300    factor for augmentation sphere                          
   RDEP   =    2.520    radius for radial grids                                 
   RDEPT  =    2.044    core radius for aug-charge                              
                                                                                
   Atomic configuration                                                         
   11 entries                                                                   
     n  l   j            E        occ.                                          
     1  0  0.50    -21933.2692   2.0000                                         
     2  0  0.50     -3153.4096   2.0000                                         
     2  1  1.50     -2823.9548   6.0000                                         
     3  0  0.50      -555.3322   2.0000                                         
     3  1  1.50      -447.1024   6.0000                                         
     3  2  2.50      -273.0570  10.0000                                         
     4  0  0.50       -76.3589   2.0000                                         
     4  1  1.50       -46.4050   6.0000                                         
     4  2  2.50        -5.2029   7.0000                                         
     5  0  0.50        -4.2392   1.0000                                         
     4  3  2.50        -1.3606   0.0000                                         
   Description                                                                  
     l       E           TYP  RCUT    TYP  RCUT                                 
     1    -46.4050190     23  2.100                                             
     1      4.0817478     23  2.100                                             
     2     -5.2028758     23  2.500                                             
     2     -6.5634584     23  2.500                                             
     0     -4.2392192     23  2.500                                             
     0      7.0918828     23  2.500                                             
     3     -5.4423304     23  2.500                                             
  local pseudopotential read in
  partial core-charges read in
  partial kinetic energy density read in
  atomic valenz-charges read in
  non local Contribution for L=           1  read in
    real space projection operators read in
  non local Contribution for L=           1  read in
    real space projection operators read in
  non local Contribution for L=           2  read in
    real space projection operators read in
  non local Contribution for L=           2  read in
    real space projection operators read in
  non local Contribution for L=           0  read in
    real space projection operators read in
  non local Contribution for L=           0  read in
    real space projection operators read in
    PAW grid and wavefunctions read in
 
   number of l-projection  operators is LMAX  =           6
   number of lm-projection operators is LMMAX =          18
 
 Optimization of the real space projectors (new method)

 maximal supplied QI-value         = 34.20
 optimisation between [QCUT,QGAM] = [ 13.34, 27.02] = [ 49.83,204.46] Ry 
 Optimized for a Real-space Cutoff    1.04 Angstroem

   l    n(q)    QCUT    max X(q) W(low)/X(q) W(high)/X(q)  e(spline) 
   0      8    13.340   134.812    0.72E-04    0.21E-03    0.27E-06
   0      8    13.340    80.524    0.70E-04    0.21E-03    0.27E-06
   1      8    13.340    79.026    0.21E-03    0.16E-03    0.33E-06
   1      8    13.340    45.188    0.20E-03    0.15E-03    0.33E-06
 Optimization of the real space projectors (new method)

 maximal supplied QI-value         = 34.20
 optimisation between [QCUT,QGAM] = [ 13.34, 27.02] = [ 49.83,204.46] Ry 
 Optimized for a Real-space Cutoff    1.04 Angstroem

   l    n(q)    QCUT    max X(q) W(low)/X(q) W(high)/X(q)  e(spline) 
   0      8    13.340   134.812    0.72E-04    0.21E-03    0.27E-06
   0      8    13.340    80.524    0.70E-04    0.21E-03    0.27E-06
   1      8    13.340    79.026    0.21E-03    0.16E-03    0.33E-06
   1      8    13.340    45.188    0.20E-03    0.15E-03    0.33E-06
 Optimization of the real space projectors (new method)

 maximal supplied QI-value         = 34.20
 optimisation between [QCUT,QGAM] = [ 13.34, 27.02] = [ 49.83,204.46] Ry 
 Optimized for a Real-space Cutoff    0.98 Angstroem

   l    n(q)    QCUT    max X(q) W(low)/X(q) W(high)/X(q)  e(spline) 
   0      8    13.340    19.460    0.18E-03    0.41E-04    0.19E-06
   0      8    13.340    12.209    0.17E-03    0.45E-04    0.18E-06
   1      7    13.340     4.655    0.16E-03    0.30E-03    0.14E-06
 Optimization of the real space projectors (new method)

 maximal supplied QI-value         = 34.20
 optimisation between [QCUT,QGAM] = [ 13.34, 27.02] = [ 49.83,204.46] Ry 
 Optimized for a Real-space Cutoff    1.04 Angstroem

   l    n(q)    QCUT    max X(q) W(low)/X(q) W(high)/X(q)  e(spline) 
   0      8    13.340   148.539    0.85E-04    0.19E-03    0.21E-06
   0      8    13.340   106.192    0.84E-04    0.19E-03    0.21E-06
   1      8    13.340    73.877    0.18E-03    0.11E-03    0.36E-06
   1      8    13.340    50.042    0.17E-03    0.11E-03    0.36E-06
 Optimization of the real space projectors (new method)

 maximal supplied QI-value         = 34.20
 optimisation between [QCUT,QGAM] = [ 13.34, 27.02] = [ 49.83,204.46] Ry 
 Optimized for a Real-space Cutoff    0.98 Angstroem

   l    n(q)    QCUT    max X(q) W(low)/X(q) W(high)/X(q)  e(spline) 
   0      8    13.340   280.207    0.16E-03    0.35E-03    0.14E-06
   0      8    13.340   228.978    0.16E-03    0.35E-03    0.14E-06
   1      7    13.340    86.127    0.23E-03    0.25E-04    0.30E-06
   1      7    13.340    65.368    0.22E-03    0.27E-04    0.30E-06
 Optimization of the real space projectors (new method)

 maximal supplied QI-value         = 15.12
 optimisation between [QCUT,QGAM] = [ 13.45, 27.06] = [ 50.69,205.06] Ry 
 Optimized for a Real-space Cutoff    1.40 Angstroem

   l    n(q)    QCUT    max X(q) W(low)/X(q) W(high)/X(q)  e(spline) 
   1     11    13.455     3.180    0.18E-04    0.25E-04    0.55E-07
   1     11    13.455     5.351    0.12E-03    0.15E-03    0.24E-06
   2     10    13.455    66.565    0.13E-03    0.46E-04    0.26E-06
   2     10    13.455    63.466    0.13E-03    0.47E-04    0.27E-06
   0     11    13.455    85.644    0.47E-04    0.16E-04    0.33E-06
   0     11    13.455    44.119    0.43E-04    0.15E-04    0.30E-06
  PAW_PBE C_h 06Feb2004                 :
 energy of atom  1       EATOM= -147.1560
 kinetic energy error for atom=    0.0286 (will be added to EATOM!!)
  PAW_PBE C_h 06Feb2004                 :
 energy of atom  2       EATOM= -147.1560
 kinetic energy error for atom=    0.0286 (will be added to EATOM!!)
  PAW_PBE H 15Jun2001                   :
 energy of atom  3       EATOM=  -12.4884
 kinetic energy error for atom=    0.0002 (will be added to EATOM!!)
  PAW_PBE N_h 06Feb2004                 :
 energy of atom  4       EATOM= -264.5486
 kinetic energy error for atom=    0.0847 (will be added to EATOM!!)
  PAW_PBE O_h 06Feb2004                 :
 energy of atom  5       EATOM= -432.3788
 kinetic energy error for atom=    0.1855 (will be added to EATOM!!)
  PAW_PBE Ru_pv 28Jan2005               :
 energy of atom  6       EATOM=-1873.4746
 kinetic energy error for atom=    0.0017 (will be added to EATOM!!)
 
 
 POSCAR: C C H N O Ru                            
  positions in direct lattice
  velocities in cartesian coordinates
 exchange correlation table for  LEXCH =        8
   RHO(1)=    0.500       N(1)  =     2000
   RHO(2)=  100.500       N(2)  =     4000
 


--------------------------------------------------------------------------------------------------------


 ion  position               nearest neighbor table
   1  0.438  0.566  0.328-  43 1.09   3 1.39   6 1.39
   2  0.293  0.477  0.568-  45 1.09  25 1.39  17 1.40
   3  0.456  0.524  0.381-  38 1.09  49 1.36   1 1.39
   4  0.474  0.615  0.450-  34 1.09  49 1.36   5 1.39
   5  0.456  0.660  0.399-  33 1.09   4 1.39   6 1.40
   6  0.438  0.635  0.337-  32 1.09   1 1.39   5 1.40
   7  0.523  0.330  0.675-  26 1.09   8 1.39  16 1.40
   8  0.497  0.372  0.626-  31 1.09  51 1.36   7 1.39
   9  0.602  0.419  0.606-  51 1.37  10 1.40  14 1.47
  10  0.631  0.378  0.654-  28 1.09  16 1.39   9 1.40
  11  0.740  0.529  0.535-  41 1.09  15 1.39  12 1.40
  12  0.701  0.566  0.490-  37 1.09  13 1.39  11 1.40
  13  0.633  0.554  0.487-  47 1.09  53 1.36  12 1.39
  14  0.640  0.469  0.567-  53 1.37  15 1.40   9 1.47
  15  0.708  0.480  0.573-  36 1.09  11 1.39  14 1.40
  16  0.591  0.332  0.689-  27 1.09  10 1.39   7 1.40
  17  0.362  0.489  0.564-  50 1.37   2 1.40  21 1.46
  18  0.408  0.622  0.691-  48 1.09  22 1.39  19 1.40
  19  0.476  0.626  0.677-  44 1.09  20 1.39  18 1.40
  20  0.503  0.586  0.627-  42 1.09  52 1.36  19 1.39
  21  0.398  0.538  0.604-  52 1.38  22 1.40  17 1.46
  22  0.369  0.578  0.654-  30 1.09  18 1.39  21 1.40
  23  0.373  0.406  0.482-  39 1.09  50 1.35  24 1.39
  24  0.305  0.392  0.484-  40 1.09  23 1.39  25 1.40
  25  0.264  0.428  0.528-  46 1.09   2 1.39  24 1.40
  26  0.490  0.295  0.701-   7 1.09
  27  0.613  0.300  0.727-  16 1.09
  28  0.684  0.381  0.665-  10 1.09
  29  0.542  0.362  0.461-  54 0.97
  30  0.316  0.573  0.664-  22 1.09
  31  0.444  0.371  0.614-   8 1.09
  32  0.424  0.668  0.296-   6 1.09
  33  0.456  0.713  0.410-   5 1.09
  34  0.488  0.634  0.499-   4 1.09
  35  0.569  0.418  0.415-  54 0.98
  36  0.738  0.450  0.608-  15 1.09
  37  0.723  0.605  0.459-  12 1.09
  38  0.456  0.470  0.375-   3 1.09
  39  0.406  0.379  0.449-  23 1.09
  40  0.284  0.353  0.452-  24 1.09
  41  0.793  0.537  0.539-  11 1.09
  42  0.556  0.588  0.614-  20 1.09
  43  0.424  0.543  0.280-   1 1.09
  44  0.509  0.660  0.704-  19 1.09
  45  0.263  0.506  0.603-   2 1.09
  46  0.211  0.418  0.531-  25 1.09
  47  0.601  0.582  0.453-  13 1.09
  48  0.385  0.653  0.729-  18 1.09
  49  0.474  0.548  0.441-   4 1.36   3 1.36  55 2.12
  50  0.402  0.453  0.521-  23 1.35  17 1.37  55 2.06
  51  0.535  0.416  0.592-   8 1.36   9 1.37  55 2.06
  52  0.465  0.543  0.590-  20 1.36  21 1.38  55 2.01
  53  0.601  0.507  0.524-  13 1.36  14 1.37  55 2.08
  54  0.531  0.406  0.442-  29 0.97  35 0.98  55 2.24
  55  0.501  0.481  0.519-  52 2.01  50 2.06  51 2.06  53 2.08  49 2.12  54 2.24
 
  LATTYP: Found a simple cubic cell.
 ALAT       =    20.0000000000
  
  Lattice vectors:
  
 A1 = (  20.0000000000,   0.0000000000,   0.0000000000)
 A2 = (   0.0000000000,  20.0000000000,   0.0000000000)
 A3 = (   0.0000000000,   0.0000000000,  20.0000000000)


Analysis of symmetry for initial positions (statically):
=====================================================================
 Subroutine PRICEL returns:
 Original cell was already a primitive cell.
 

 Routine SETGRP: Setting up the symmetry group for a 
 simple cubic supercell.


 Subroutine GETGRP returns: Found  1 space group operations
 (whereof  1 operations were pure point group operations)
 out of a pool of 48 trial point group operations.


The static configuration has the point symmetry C_1 .


Analysis of symmetry for dynamics (positions and initial velocities):
=====================================================================
 Subroutine PRICEL returns:
 Original cell was already a primitive cell.
 

 Routine SETGRP: Setting up the symmetry group for a 
 simple cubic supercell.


 Subroutine GETGRP returns: Found  1 space group operations
 (whereof  1 operations were pure point group operations)
 out of a pool of 48 trial point group operations.


The dynamic configuration has the point symmetry C_1 .


Analysis of constrained symmetry for selective dynamics:
=====================================================================
 Subroutine PRICEL returns:
 Original cell was already a primitive cell.
 

 Routine SETGRP: Setting up the symmetry group for a 
 simple cubic supercell.


 Subroutine GETGRP returns: Found  1 space group operations
 (whereof  1 operations were pure point group operations)
 out of a pool of 48 trial point group operations.


The constrained configuration has the point symmetry C_1 .


Analysis of magnetic symmetry:
=====================================================================
 Subroutine PRICEL returns:
 Original cell was already a primitive cell.
 

 Subroutine MAGSYM returns: Found  1 space group operations
 (whereof  1 operations were pure point group operations)
 out of a pool of  1 trial space group operations
 (whereof  1 operations were pure point group operations)
 and found also     1 'primitive' translations


The magnetic configuration has the point symmetry C_1 .
 
 
 KPOINTS: K-Points                                

Automatic generation of k-mesh.
Space group operators:
 irot       det(A)        alpha          n_x          n_y          n_z        tau_x        tau_y        tau_z
    1     1.000000     0.000000     1.000000     0.000000     0.000000     0.000000     0.000000     0.000000
 
 Subroutine IBZKPT returns following result:
 ===========================================
 
 Found      1 irreducible k-points:
 
 Following reciprocal coordinates:
            Coordinates               Weight
  0.000000  0.000000  0.000000      1.000000
 
 Following cartesian coordinates:
            Coordinates               Weight
  0.000000  0.000000  0.000000      1.000000
 


--------------------------------------------------------------------------------------------------------




 Dimension of arrays:
   k-points           NKPTS =      1   k-points in BZ     NKDIM =      1   number of bands    NBANDS=    128
   number of dos      NEDOS =    301   number of ions     NIONS =     55
   non local maximal  LDIM  =      6   non local SUM 2l+1 LMDIM =     18
   total plane-waves  NPLWV = ******
   max r-space proj   IRMAX =   8473   max aug-charges    IRDMAX= 268848
   dimension x,y,z NGX =   180 NGY =  180 NGZ =  180
   dimension x,y,z NGXF=   360 NGYF=  360 NGZF=  360
   support grid    NGXF=   720 NGYF=  720 NGZF=  720
   ions per type =               1  24  23   5   1   1
 NGX,Y,Z   is equivalent  to a cutoff of  14.96, 14.96, 14.96 a.u.
 NGXF,Y,Z  is equivalent  to a cutoff of  29.92, 29.92, 29.92 a.u.


 I would recommend the setting:
   dimension x,y,z NGX =   173 NGY =  173 NGZ =  173
 SYSTEM =  c2_oh2_ruthenium_mol                    
 POSCAR =  C C H N O Ru                            

 Startparameter for this run:
   NWRITE =      2    write-flag & timer
   PREC   = accura    normal or accurate (medium, high low for compatibility)
   ISTART =      0    job   : 0-new  1-cont  2-samecut
   ICHARG =      2    charge: 1-file 2-atom 10-const
   ISPIN  =      2    spin polarized calculation?
   LNONCOLLINEAR =      F non collinear calculations
   LSORBIT =      F    spin-orbit coupling
   INIWAV =      1    electr: 0-lowe 1-rand  2-diag
   LASPH  =      F    aspherical Exc in radial PAW
   METAGGA=      F    non-selfconsistent MetaGGA calc.

 Electronic Relaxation 1
   ENCUT  =  700.0 eV  51.45 Ry    7.17 a.u.  43.15 43.15 43.15*2*pi/ulx,y,z
   ENINI  =  700.0     initial cutoff
   ENAUG  =  946.8 eV  augmentation charge cutoff
   NELM   =     60;   NELMIN=  2; NELMDL= -5     # of ELM steps 
   EDIFF  = 0.1E-04   stopping-criterion for ELM
   LREAL  =      T    real-space projection
   NLSPLINE    = F    spline interpolate recip. space projectors
   LCOMPAT=      F    compatible to vasp.4.4
   GGA_COMPAT  = T    GGA compatible to vasp.4.4-vasp.4.6
   LMAXPAW     = -100 max onsite density
   LMAXMIX     =    2 max onsite mixed and CHGCAR
   VOSKOWN=      0    Vosko Wilk Nusair interpolation
   ROPT   =   -0.00025  -0.00025  -0.00025  -0.00025
   ROPT   =   -0.00025  -0.00025
 Ionic relaxation
   EDIFFG = -.1E-01   stopping-criterion for IOM
   NSW    =      0    number of steps for IOM
   NBLOCK =      1;   KBLOCK =      1    inner block; outer block 
   IBRION =     -1    ionic relax: 0-MD 1-quasi-New 2-CG
   NFREE  =      0    steps in history (QN), initial steepest desc. (CG)
   ISIF   =      2    stress and relaxation
   IWAVPR =     10    prediction:  0-non 1-charg 2-wave 3-comb
   ISYM   =      2    0-nonsym 1-usesym 2-fastsym
   LCORR  =      T    Harris-Foulkes like correction to forces

   POTIM  = 0.5000    time-step for ionic-motion
   TEIN   =    0.0    initial temperature
   TEBEG  =    0.0;   TEEND  =   0.0 temperature during run
   SMASS  =  -3.00    Nose mass-parameter (am)
   estimated Nose-frequenzy (Omega)   =  0.10E-29 period in steps =****** mass=  -0.914E-26a.u.
   SCALEE = 1.0000    scale energy and forces
   NPACO  =    256;   APACO  = 16.0  distance and # of slots for P.C.
   PSTRESS=    0.0 pullay stress

  Mass of Ions in am
   POMASS =  12.01 12.01  1.00 14.00 16.00101.07
  Ionic Valenz
   ZVAL   =   4.50  4.00  1.00  5.00  6.00 14.00
  Atomic Wigner-Seitz radii
   RWIGS  =  -1.00 -1.00 -1.00 -1.00 -1.00 -1.00
  virtual crystal weights 
   VCA    =   1.00  1.00  1.00  1.00  1.00  1.00
   NELECT =     166.0000    total number of electrons
   NUPDOWN=       0.0000    fix difference up-down

 DOS related values:
   EMIN   =  10.00;   EMAX   =-10.00  energy-range for DOS
   EFERMI =   0.00
   ISMEAR =     0;   SIGMA  =   0.01  broadening in eV -4-tet -1-fermi 0-gaus

 Electronic relaxation 2 (details)
   IALGO  =     38    algorithm
   LDIAG  =      T    sub-space diagonalisation (order eigenvalues)
   LSUBROT=      F    optimize rotation matrix (better conditioning)
   TURBO    =      0    0=normal 1=particle mesh
   IRESTART =      0    0=no restart 2=restart with 2 vectors
   NREBOOT  =      0    no. of reboots
   NMIN     =      0    reboot dimension
   EREF     =   0.00    reference energy to select bands
   IMIX   =      4    mixing-type and parameters
     AMIX     =   0.40;   BMIX     =  2.00
     AMIX_MAG =   1.60;   BMIX_MAG =  2.00
     AMIN     =   0.10
     WC   =   100.;   INIMIX=   1;  MIXPRE=   1;  MAXMIX= -45

 Intra band minimization:
   WEIMIN = 0.0000     energy-eigenvalue tresh-hold
   EBREAK =  0.20E-07  absolut break condition
   DEPER  =   0.30     relativ break condition  

   TIME   =   0.05     timestep for ELM

  volume/ion in A,a.u.               =     145.45       981.58
  Fermi-wavevector in a.u.,A,eV,Ry     =   0.449864  0.850119  2.753510  0.202377
  Thomas-Fermi vector in A             =   1.430192
 
 Write flags
   LWAVE  =      T    write WAVECAR
   LCHARG =      T    write CHGCAR
   LVTOT  =      F    write LOCPOT, total local potential
   LVHAR  =      F    write LOCPOT, Hartree potential only
   LELF   =      F    write electronic localiz. function (ELF)
   LORBIT =      0    0 simple, 1 ext, 2 COOP (PROOUT)


 Dipole corrections
   LMONO  =      F    monopole corrections only (constant potential shift)
   LDIPOL =      F    correct potential (dipole corrections)
   IDIPOL =      0    1-x, 2-y, 3-z, 4-all directions 
   EPSILON=  1.0000000 bulk dielectric constant

 Core level calculations are selected ICORELEVEL =  2
  CLNT =           1       CLN =     1
  CLL  =           0       CLZ = 0.500
 Exchange correlation treatment:
   GGA     =    --    GGA type
   LEXCH   =     8    internal setting for exchange type
   VOSKOWN=      0    Vosko Wilk Nusair interpolation
   LHFCALC =     F    Hartree Fock is set to
   LHFONE  =     F    Hartree Fock one center treatment
   AEXX    =    0.0000 exact exchange contribution

 Linear response parameters
   LEPSILON=     F    determine dielectric tensor
   LRPA    =     F    only Hartree local field effects (RPA)
   LNABLA  =     F    use nabla operator in PAW spheres
   LVEL    =     F    velocity operator in full k-point grid
   LINTERFAST=   F  fast interpolation
   KINTER  =     0    interpolate to denser k-point grid
   CSHIFT  =0.1000    complex shift for real part using Kramers Kronig
   OMEGAMAX=  -1.0    maximum frequency
   DEG_THRESHOLD= 0.2000000E-02 threshold for treating states as degnerate
   RTIME   =    0.100 relaxation time in fs

 Orbital magnetization related:
   ORBITALMAG=     F  switch on orbital magnetization
   LCHIMAG   =     F  perturbation theory with respect to B field
   DQ        =  0.001000  dq finite difference perturbation B field



--------------------------------------------------------------------------------------------------------


 Static calculation
 charge density and potential will be updated during run
 spin polarized calculation
 Variant of blocked Davidson
 Davidson routine will perform the subspace rotation
 perform sub-space diagonalisation
    after iterative eigenvector-optimisation
 modified Broyden-mixing scheme, WC =      100.0
 initial mixing is a Kerker type mixing with AMIX =  0.4000 and BMIX =      2.0000
 Hartree-type preconditioning will be used
 using additional bands           45
 real space projection scheme for non local part
 use partial core corrections
 calculate Harris-corrections to forces 
   (improved forces if not selfconsistent)
 use gradient corrections 
 use of overlap-Matrix (Vanderbilt PP)
 Gauss-broadening in eV      SIGMA  =   0.01


--------------------------------------------------------------------------------------------------------


  energy-cutoff  :      700.00
  volume of cell :     8000.00
      direct lattice vectors                 reciprocal lattice vectors
    20.000000000  0.000000000  0.000000000     0.050000000  0.000000000  0.000000000
     0.000000000 20.000000000  0.000000000     0.000000000  0.050000000  0.000000000
     0.000000000  0.000000000 20.000000000     0.000000000  0.000000000  0.050000000

  length of vectors
    20.000000000 20.000000000 20.000000000     0.050000000  0.050000000  0.050000000


 
 k-points in units of 2pi/SCALE and weight: K-Points                                
   0.00000000  0.00000000  0.00000000       1.000
 
 k-points in reciprocal lattice and weights: K-Points                                
   0.00000000  0.00000000  0.00000000       1.000
 
 position of ions in fractional coordinates (direct lattice) 
   0.43793752  0.56561110  0.32757008
   0.29334713  0.47671938  0.56830116
   0.45581208  0.52423376  0.38051465
   0.47372925  0.61530131  0.44986522
   0.45595175  0.65963312  0.39935201
   0.43785737  0.63472201  0.33675972
   0.52307882  0.32955005  0.67474498
   0.49710163  0.37190466  0.62618823
   0.60227374  0.41933300  0.60593616
   0.63096398  0.37761922  0.65422416
   0.73964927  0.52855915  0.53463181
   0.70082162  0.56612858  0.49044049
   0.63257913  0.55363620  0.48652424
   0.63952130  0.46927713  0.56732841
   0.70843899  0.47974495  0.57314689
   0.59134754  0.33224398  0.68903016
   0.36211554  0.48866484  0.56417415
   0.40790931  0.62211625  0.69058213
   0.47619960  0.62606623  0.67660612
   0.50295190  0.58590820  0.62668073
   0.39825425  0.53800137  0.60426081
   0.36904589  0.57756069  0.65398228
   0.37289802  0.40579857  0.48223443
   0.30486503  0.39173492  0.48443166
   0.26422003  0.42785518  0.52821594
   0.48989745  0.29510618  0.70074864
   0.61334240  0.29968355  0.72673159
   0.68424189  0.38076917  0.66478776
   0.54225374  0.36233861  0.46129841
   0.31579090  0.57306911  0.66420366
   0.44416348  0.37118871  0.61364770
   0.42392665  0.66833230  0.29622671
   0.45642762  0.71313270  0.40950260
   0.48809132  0.63358802  0.49907234
   0.56912778  0.41808713  0.41480476
   0.73767440  0.44963919  0.60776512
   0.72277620  0.60481012  0.45904817
   0.45570253  0.47012894  0.37468790
   0.40614333  0.37888556  0.44852541
   0.28443799  0.35306162  0.45202062
   0.79326502  0.53703787  0.53892527
   0.55589708  0.58769132  0.61440612
   0.42412006  0.54328620  0.27986105
   0.50894741  0.65984570  0.70400156
   0.26265982  0.50568523  0.60265428
   0.21072272  0.41813760  0.53105039
   0.60090654  0.58197914  0.45254259
   0.38544357  0.65296704  0.72941133
   0.47424490  0.54794204  0.44140236
   0.40180479  0.45306079  0.52108436
   0.53520702  0.41608490  0.59173240
   0.46544808  0.54254992  0.59041194
   0.60138410  0.50650621  0.52397638
   0.53073984  0.40562607  0.44215451
   0.50088568  0.48087016  0.51934246
 
 position of ions in cartesian coordinates  (Angst):
   8.75875044 11.31222209  6.55140167
   5.86694270  9.53438759 11.36602327
   9.11624161 10.48467523  7.61029296
   9.47458509 12.30602619  8.99730442
   9.11903505 13.19266234  7.98704025
   8.75714739 12.69444028  6.73519441
  10.46157638  6.59100110 13.49489953
   9.94203263  7.43809325 12.52376455
  12.04547477  8.38665999 12.11872314
  12.61927957  7.55238445 13.08448329
  14.79298537 10.57118301 10.69263621
  14.01643234 11.32257164  9.80880974
  12.65158254 11.07272405  9.73048485
  12.79042597  9.38554253 11.34656829
  14.16877978  9.59489901 11.46293786
  11.82695089  6.64487969 13.78060313
   7.24231077  9.77329687 11.28348299
   8.15818611 12.44232505 13.81164268
   9.52399198 12.52132464 13.53212240
  10.05903801 11.71816400 12.53361469
   7.96508499 10.76002740 12.08521614
   7.38091777 11.55121387 13.07964553
   7.45796037  8.11597149  9.64468853
   6.09730063  7.83469839  9.68863321
   5.28440067  8.55710369 10.56431882
   9.79794892  5.90212351 14.01497288
  12.26684793  5.99367109 14.53463185
  13.68483783  7.61538334 13.29575520
  10.84507475  7.24677213  9.22596819
   6.31581791 11.46138226 13.28407311
   8.88326966  7.42377422 12.27295397
   8.47853309 13.36664601  5.92453423
   9.12855243 14.26265408  8.19005201
   9.76182647 12.67176037  9.98144677
  11.38255564  8.36174255  8.29609511
  14.75348806  8.99278384 12.15530242
  14.45552391 12.09620238  9.18096343
   9.11405064  9.40257887  7.49375804
   8.12286663  7.57771114  8.97050829
   5.68875982  7.06123239  9.04041232
  15.86530045 10.74075733 10.77850539
  11.11794158 11.75382641 12.28812234
   8.48240128 10.86572407  5.59722093
  10.17894811 13.19691406 14.08003122
   5.25319634 10.11370460 12.05308551
   4.21445446  8.36275200 10.62100772
  12.01813087 11.63958272  9.05085175
   7.70887141 13.05934086 14.58822659
   9.48489793 10.95884088  8.82804729
   8.03609572  9.06121573 10.42168714
  10.70414049  8.32169803 11.83464804
   9.30896151 10.85099836 11.80823871
  12.02768196 10.13012430 10.47952760
  10.61479684  8.11252146  8.84309019
  10.01771355  9.61740316 10.38684921
 


--------------------------------------------------------------------------------------------------------


 k-point  1 :   0.0000 0.0000 0.0000  plane waves:  336427

 maximum and minimum number of plane-waves per node :    336427   336427

 maximum number of plane-waves:    336427
 maximum index in each direction: 
   IXMAX=   43   IYMAX=   43   IZMAX=   43
   IXMIN=  -43   IYMIN=  -43   IZMIN=  -43

 NGX is ok and might be reduce to 174
 NGY is ok and might be reduce to 174
 NGZ is ok and might be reduce to 174

 serial   3D FFT for wavefunctions
 parallel 3D FFT for charge:
    minimum data exchange during FFTs selected (reduces bandwidth)


 total amount of memory used by VASP on root node   877132. kBytes
========================================================================

   base      :      30000. kBytes
   nonlr-proj:      19361. kBytes
   fftplans  :     269516. kBytes
   grid      :     534988. kBytes
   one-center:       1710. kBytes
   wavefun   :      21557. kBytes
 
     INWAV:  cpu time    0.00: real time    0.00
 Broyden mixing: mesh for mixing (old mesh)
   NGX = 87   NGY = 87   NGZ = 87
  (NGX  =360   NGY  =360   NGZ  =360)
  gives a total of 658503 points

 initial charge density was supplied:
 charge density of overlapping atoms calculated
 number of electron     168.5000000 magnetization       0.0000000
 keeping initial charge density in first step


--------------------------------------------------------------------------------------------------------


 Maximum index for non-local projection operator         8166
 Maximum index for augmentation-charges         3214 (set IRDMAX)


--------------------------------------------------------------------------------------------------------


 First call to EWALD:  gamma=   0.089
 Maximum number of real-space cells 3x 3x 3
 Maximum number of reciprocal cells 3x 3x 3

 FEWALD executed in parallel
    FEWALD:  cpu time    0.00: real time    0.00


----------------------------------------- Iteration    1(   1)  ---------------------------------------


    POTLOK:  cpu time    4.72: real time    4.76
    SETDIJ:  cpu time    2.82: real time    2.82
     EDDAV:  cpu time   14.77: real time   15.72
       DOS:  cpu time    0.02: real time    0.02
    --------------------------------------------
      LOOP:  cpu time   22.34: real time   23.33

 eigenvalue-minimisations  :   768
 total energy-change (2. order) : 0.9091642E+03  (-0.5881154E+04)
 number of electron     168.5000000 magnetization       0.0000000
 augmentation part      168.5000000 magnetization       0.0000000

 Free energy of the ion-electron system (eV)
  ---------------------------------------------------
  alpha Z        PSCENC =        12.91687988
  Ewald energy   TEWEN  =     23270.44412648
  -Hartree energ DENC   =    -28872.73846368
  -exchange      EXHF   =         0.00000000
  -V(xc)+E(xc)   XCENC  =       400.93316391
  PAW double counting   =      5890.45591622    -5710.10246236
  entropy T*S    EENTRO =        -0.00000046
  eigenvalues    EBANDS =     -1676.14482910
  atomic energy  EATOM  =      7593.39991119
  ---------------------------------------------------
  free energy    TOTEN  =       909.16424209 eV

  energy without entropy =      909.16424255  energy(sigma->0) =      909.16424232


--------------------------------------------------------------------------------------------------------




----------------------------------------- Iteration    1(   2)  ---------------------------------------


     EDDAV:  cpu time   18.97: real time   20.26
       DOS:  cpu time    0.02: real time    0.02
    --------------------------------------------
      LOOP:  cpu time   18.99: real time   20.28

 eigenvalue-minimisations  :  1024
 total energy-change (2. order) :-0.9787268E+03  (-0.9723374E+03)
 number of electron     168.5000000 magnetization       0.0000000
 augmentation part      168.5000000 magnetization       0.0000000

 Free energy of the ion-electron system (eV)
  ---------------------------------------------------
  alpha Z        PSCENC =        12.91687988
  Ewald energy   TEWEN  =     23270.44412648
  -Hartree energ DENC   =    -28872.73846368
  -exchange      EXHF   =         0.00000000
  -V(xc)+E(xc)   XCENC  =       400.93316391
  PAW double counting   =      5890.45591622    -5710.10246236
  entropy T*S    EENTRO =        -0.00000000
  eigenvalues    EBANDS =     -2654.87164778
  atomic energy  EATOM  =      7593.39991119
  ---------------------------------------------------
  free energy    TOTEN  =       -69.56257614 eV

  energy without entropy =      -69.56257614  energy(sigma->0) =      -69.56257614


--------------------------------------------------------------------------------------------------------




----------------------------------------- Iteration    1(   3)  ---------------------------------------


     EDDAV:  cpu time   14.93: real time   15.85
       DOS:  cpu time    0.01: real time    0.01
    --------------------------------------------
      LOOP:  cpu time   14.94: real time   15.86

 eigenvalue-minimisations  :   768
 total energy-change (2. order) :-0.3219753E+03  (-0.3213708E+03)
 number of electron     168.5000000 magnetization       0.0000000
 augmentation part      168.5000000 magnetization       0.0000000

 Free energy of the ion-electron system (eV)
  ---------------------------------------------------
  alpha Z        PSCENC =        12.91687988
  Ewald energy   TEWEN  =     23270.44412648
  -Hartree energ DENC   =    -28872.73846368
  -exchange      EXHF   =         0.00000000
  -V(xc)+E(xc)   XCENC  =       400.93316391
  PAW double counting   =      5890.45591622    -5710.10246236
  entropy T*S    EENTRO =        -0.00000000
  eigenvalues    EBANDS =     -2976.84690722
  atomic energy  EATOM  =      7593.39991119
  ---------------------------------------------------
  free energy    TOTEN  =      -391.53783557 eV

  energy without entropy =     -391.53783557  energy(sigma->0) =     -391.53783557


--------------------------------------------------------------------------------------------------------




----------------------------------------- Iteration    1(   4)  ---------------------------------------


     EDDAV:  cpu time   13.76: real time   14.60
       DOS:  cpu time    0.00: real time    0.00
    --------------------------------------------
      LOOP:  cpu time   13.77: real time   14.61

 eigenvalue-minimisations  :   704
 total energy-change (2. order) :-0.2017375E+02  (-0.2014241E+02)
 number of electron     168.5000000 magnetization       0.0000000
 augmentation part      168.5000000 magnetization       0.0000000

 Free energy of the ion-electron system (eV)
  ---------------------------------------------------
  alpha Z        PSCENC =        12.91687988
  Ewald energy   TEWEN  =     23270.44412648
  -Hartree energ DENC   =    -28872.73846368
  -exchange      EXHF   =         0.00000000
  -V(xc)+E(xc)   XCENC  =       400.93316391
  PAW double counting   =      5890.45591622    -5710.10246236
  entropy T*S    EENTRO =        -0.00000000
  eigenvalues    EBANDS =     -2997.02065422
  atomic energy  EATOM  =      7593.39991119
  ---------------------------------------------------
  free energy    TOTEN  =      -411.71158257 eV

  energy without entropy =     -411.71158257  energy(sigma->0) =     -411.71158257


--------------------------------------------------------------------------------------------------------




----------------------------------------- Iteration    1(   5)  ---------------------------------------


     EDDAV:  cpu time   15.97: real time   16.95
       DOS:  cpu time    0.02: real time    0.02
    CHARGE:  cpu time    5.13: real time    5.15
    MIXING:  cpu time    0.16: real time    0.16
    --------------------------------------------
      LOOP:  cpu time   21.28: real time   22.28

 eigenvalue-minimisations  :   832
 total energy-change (2. order) :-0.2800219E+00  (-0.2794430E+00)
 number of electron     166.0000000 magnetization      -0.0000000
 augmentation part        3.4902582 magnetization      -0.0019811

 Broyden mixing:
  rms(total) = 0.57823E+01    rms(broyden)= 0.57816E+01
  rms(prec ) = 0.61822E+01
  weight for this iteration     100.00

 Free energy of the ion-electron system (eV)
  ---------------------------------------------------
  alpha Z        PSCENC =        12.91687988
  Ewald energy   TEWEN  =     23270.44412648
  -Hartree energ DENC   =    -28872.73846368
  -exchange      EXHF   =         0.00000000
  -V(xc)+E(xc)   XCENC  =       400.93316391
  PAW double counting   =      5890.45591622    -5710.10246236
  entropy T*S    EENTRO =        -0.00000000
  eigenvalues    EBANDS =     -2997.30067607
  atomic energy  EATOM  =      7593.39991119
  ---------------------------------------------------
  free energy    TOTEN  =      -411.99160442 eV

  energy without entropy =     -411.99160442  energy(sigma->0) =     -411.99160442


--------------------------------------------------------------------------------------------------------




----------------------------------------- Iteration    1(   6)  ---------------------------------------


    POTLOK:  cpu time    4.62: real time    4.65
    SETDIJ:  cpu time    2.79: real time    2.80
     EDDAV:  cpu time   11.82: real time   12.53
       DOS:  cpu time    0.08: real time    0.08
    CHARGE:  cpu time    5.14: real time    5.15
    MIXING:  cpu time    0.08: real time    0.08
    --------------------------------------------
      LOOP:  cpu time   24.53: real time   25.29

 eigenvalue-minimisations  :   576
 total energy-change (2. order) : 0.1744889E+02  (-0.4075614E+02)
 number of electron     166.0000000 magnetization      -0.0000000
 augmentation part        6.5519878 magnetization       0.0012396

 Broyden mixing:
  rms(total) = 0.39475E+01    rms(broyden)= 0.39473E+01
  rms(prec ) = 0.41249E+01
  weight for this iteration     100.00

 eigenvalues of (default mixing * dielectric matrix)
  average eigenvalue GAMMA=   1.0141
  1.0141

 Free energy of the ion-electron system (eV)
  ---------------------------------------------------
  alpha Z        PSCENC =        12.91687988
  Ewald energy   TEWEN  =     23270.44412648
  -Hartree energ DENC   =    -28868.99107996
  -exchange      EXHF   =         0.00000000
  -V(xc)+E(xc)   XCENC  =       406.44052052
  PAW double counting   =     20900.44424019   -20733.36920427
  entropy T*S    EENTRO =        -0.00000000
  eigenvalues    EBANDS =     -2975.82811190
  atomic energy  EATOM  =      7593.39991119
  ---------------------------------------------------
  free energy    TOTEN  =      -394.54271787 eV

  energy without entropy =     -394.54271787  energy(sigma->0) =     -394.54271787


--------------------------------------------------------------------------------------------------------




----------------------------------------- Iteration    1(   7)  ---------------------------------------


    POTLOK:  cpu time    4.60: real time    4.62
    SETDIJ:  cpu time    2.79: real time    2.80
     EDDAV:  cpu time   14.05: real time   15.26
       DOS:  cpu time    0.05: real time    0.05
    CHARGE:  cpu time    5.05: real time    5.06
    MIXING:  cpu time    0.16: real time    0.16
    --------------------------------------------
      LOOP:  cpu time   26.71: real time   27.96

 eigenvalue-minimisations  :   704
 total energy-change (2. order) : 0.1112822E+02  (-0.2303088E+01)
 number of electron     166.0000000 magnetization      -0.0000000
 augmentation part        5.6206617 magnetization      -0.0006581

 Broyden mixing:
  rms(total) = 0.24084E+01    rms(broyden)= 0.24083E+01
  rms(prec ) = 0.24843E+01
  weight for this iteration     100.00

 eigenvalues of (default mixing * dielectric matrix)
  average eigenvalue GAMMA=   1.3884
  0.7495  2.0273

 Free energy of the ion-electron system (eV)
  ---------------------------------------------------
  alpha Z        PSCENC =        12.91687988
  Ewald energy   TEWEN  =     23270.44412648
  -Hartree energ DENC   =    -29000.21007752
  -exchange      EXHF   =         0.00000000
  -V(xc)+E(xc)   XCENC  =       411.73218680
  PAW double counting   =     35941.45871572   -35769.46656307
  entropy T*S    EENTRO =        -0.00000000
  eigenvalues    EBANDS =     -2843.68967503
  atomic energy  EATOM  =      7593.39991119
  ---------------------------------------------------
  free energy    TOTEN  =      -383.41449554 eV

  energy without entropy =     -383.41449554  energy(sigma->0) =     -383.41449554


--------------------------------------------------------------------------------------------------------




----------------------------------------- Iteration    1(   8)  ---------------------------------------


    POTLOK:  cpu time    4.62: real time    4.64
    SETDIJ:  cpu time    2.81: real time    2.81
     EDDAV:  cpu time   15.16: real time   16.44
       DOS:  cpu time    0.05: real time    0.05
    CHARGE:  cpu time    5.32: real time    5.34
    MIXING:  cpu time    0.07: real time    0.07
    --------------------------------------------
      LOOP:  cpu time   28.04: real time   29.35

 eigenvalue-minimisations  :   768
 total energy-change (2. order) : 0.4432698E+01  (-0.1768021E+01)
 number of electron     166.0000000 magnetization      -0.0000000
 augmentation part        4.9002128 magnetization      -0.0001322

 Broyden mixing:
  rms(total) = 0.98511E+00    rms(broyden)= 0.98507E+00
  rms(prec ) = 0.10602E+01
  weight for this iteration     100.00

 eigenvalues of (default mixing * dielectric matrix)
  average eigenvalue GAMMA=   1.4473
  2.6783  0.8318  0.8318

 Free energy of the ion-electron system (eV)
  ---------------------------------------------------
  alpha Z        PSCENC =        12.91687988
  Ewald energy   TEWEN  =     23270.44412648
  -Hartree energ DENC   =    -29155.74604240
  -exchange      EXHF   =         0.00000000
  -V(xc)+E(xc)   XCENC  =       419.46696730
  PAW double counting   =     67848.92432240   -67673.44102080
  entropy T*S    EENTRO =        -0.00000000
  eigenvalues    EBANDS =     -2694.94694198
  atomic energy  EATOM  =      7593.39991119
  ---------------------------------------------------
  free energy    TOTEN  =      -378.98179792 eV

  energy without entropy =     -378.98179792  energy(sigma->0) =     -378.98179792


--------------------------------------------------------------------------------------------------------




----------------------------------------- Iteration    1(   9)  ---------------------------------------


    POTLOK:  cpu time    4.61: real time    4.63
    SETDIJ:  cpu time    2.81: real time    2.81
     EDDAV:  cpu time   15.02: real time   16.32
       DOS:  cpu time    0.05: real time    0.05
    CHARGE:  cpu time    5.18: real time    5.18
    MIXING:  cpu time    0.11: real time    0.11
    --------------------------------------------
      LOOP:  cpu time   27.78: real time   29.10

 eigenvalue-minimisations  :   768
 total energy-change (2. order) : 0.1235747E+01  (-0.4097674E+00)
 number of electron     166.0000000 magnetization      -0.0000000
 augmentation part        5.2033484 magnetization       0.0000302

 Broyden mixing:
  rms(total) = 0.37209E+00    rms(broyden)= 0.37207E+00
  rms(prec ) = 0.41154E+00
  weight for this iteration     100.00

 eigenvalues of (default mixing * dielectric matrix)
  average eigenvalue GAMMA=   1.3222
  2.5294  1.1187  0.8204  0.8204

 Free energy of the ion-electron system (eV)
  ---------------------------------------------------
  alpha Z        PSCENC =        12.91687988
  Ewald energy   TEWEN  =     23270.44412648
  -Hartree energ DENC   =    -29185.46968156
  -exchange      EXHF   =         0.00000000
  -V(xc)+E(xc)   XCENC  =       422.50179263
  PAW double counting   =     82547.84937404   -82373.97830854
  entropy T*S    EENTRO =        -0.00000000
  eigenvalues    EBANDS =     -2665.41014460
  atomic energy  EATOM  =      7593.39991119
  ---------------------------------------------------
  free energy    TOTEN  =      -377.74605047 eV

  energy without entropy =     -377.74605047  energy(sigma->0) =     -377.74605047


--------------------------------------------------------------------------------------------------------




----------------------------------------- Iteration    1(  10)  ---------------------------------------


    POTLOK:  cpu time    4.71: real time    4.77
    SETDIJ:  cpu time    2.83: real time    2.83
     EDDAV:  cpu time   15.18: real time   16.48
       DOS:  cpu time    0.04: real time    0.04
    CHARGE:  cpu time    5.20: real time    5.21
    MIXING:  cpu time    0.10: real time    0.10
    --------------------------------------------
      LOOP:  cpu time   28.07: real time   29.43

 eigenvalue-minimisations  :   768
 total energy-change (2. order) : 0.6529717E-01  (-0.5898140E-01)
 number of electron     166.0000000 magnetization      -0.0000000
 augmentation part        5.3314373 magnetization       0.0000547

 Broyden mixing:
  rms(total) = 0.25528E+00    rms(broyden)= 0.25528E+00
  rms(prec ) = 0.29772E+00
  weight for this iteration     100.00

 eigenvalues of (default mixing * dielectric matrix)
  average eigenvalue GAMMA=   1.2717
  2.4624  1.5265  0.7637  0.7637  0.8422

 Free energy of the ion-electron system (eV)
  ---------------------------------------------------
  alpha Z        PSCENC =        12.91687988
  Ewald energy   TEWEN  =     23270.44412648
  -Hartree energ DENC   =    -29171.95986125
  -exchange      EXHF   =         0.00000000
  -V(xc)+E(xc)   XCENC  =       422.50700738
  PAW double counting   =     81309.82497454   -81136.65672930
  entropy T*S    EENTRO =        -0.00000000
  eigenvalues    EBANDS =     -2678.15706222
  atomic energy  EATOM  =      7593.39991119
  ---------------------------------------------------
  free energy    TOTEN  =      -377.68075330 eV

  energy without entropy =     -377.68075330  energy(sigma->0) =     -377.68075330


--------------------------------------------------------------------------------------------------------




----------------------------------------- Iteration    1(  11)  ---------------------------------------


    POTLOK:  cpu time    4.62: real time    4.65
    SETDIJ:  cpu time    2.81: real time    2.82
     EDDAV:  cpu time   15.04: real time   16.33
       DOS:  cpu time    0.05: real time    0.05
    CHARGE:  cpu time    5.18: real time    5.18
    MIXING:  cpu time    0.13: real time    0.13
    --------------------------------------------
      LOOP:  cpu time   27.84: real time   29.15

 eigenvalue-minimisations  :   768
 total energy-change (2. order) : 0.1107434E+00  (-0.9114149E-02)
 number of electron     166.0000000 magnetization      -0.0000000
 augmentation part        5.2995268 magnetization       0.0000261

 Broyden mixing:
  rms(total) = 0.13649E+00    rms(broyden)= 0.13649E+00
  rms(prec ) = 0.17821E+00
  weight for this iteration     100.00

 eigenvalues of (default mixing * dielectric matrix)
  average eigenvalue GAMMA=   1.4020
  2.4824  2.4824  1.0157  0.8841  0.8841  0.6631

 Free energy of the ion-electron system (eV)
  ---------------------------------------------------
  alpha Z        PSCENC =        12.91687988
  Ewald energy   TEWEN  =     23270.44412648
  -Hartree energ DENC   =    -29171.33087943
  -exchange      EXHF   =         0.00000000
  -V(xc)+E(xc)   XCENC  =       423.07468387
  PAW double counting   =     81726.79001010   -81553.50426931
  entropy T*S    EENTRO =        -0.00000000
  eigenvalues    EBANDS =     -2679.36047270
  atomic energy  EATOM  =      7593.39991119
  ---------------------------------------------------
  free energy    TOTEN  =      -377.57000991 eV

  energy without entropy =     -377.57000991  energy(sigma->0) =     -377.57000991


--------------------------------------------------------------------------------------------------------




----------------------------------------- Iteration    1(  12)  ---------------------------------------


    POTLOK:  cpu time    4.72: real time    4.75
    SETDIJ:  cpu time    2.81: real time    2.81
     EDDAV:  cpu time   15.06: real time   16.32
       DOS:  cpu time    0.05: real time    0.05
    CHARGE:  cpu time    5.12: real time    5.12
    MIXING:  cpu time    0.16: real time    0.16
    --------------------------------------------
      LOOP:  cpu time   27.93: real time   29.22

 eigenvalue-minimisations  :   768
 total energy-change (2. order) : 0.8490169E-01  (-0.8906415E-02)
 number of electron     166.0000000 magnetization      -0.0000000
 augmentation part        5.2619714 magnetization       0.0000547

 Broyden mixing:
  rms(total) = 0.68024E-01    rms(broyden)= 0.68021E-01
  rms(prec ) = 0.10379E+00
  weight for this iteration     100.00

 eigenvalues of (default mixing * dielectric matrix)
  average eigenvalue GAMMA=   1.4283
  2.7923  2.7923  0.8767  0.8767  1.0135  1.0135  0.6334

 Free energy of the ion-electron system (eV)
  ---------------------------------------------------
  alpha Z        PSCENC =        12.91687988
  Ewald energy   TEWEN  =     23270.44412648
  -Hartree energ DENC   =    -29168.65600114
  -exchange      EXHF   =         0.00000000
  -V(xc)+E(xc)   XCENC  =       423.70115724
  PAW double counting   =     81753.28009415   -81579.88425353
  entropy T*S    EENTRO =        -0.00000000
  eigenvalues    EBANDS =     -2682.68702250
  atomic energy  EATOM  =      7593.39991119
  ---------------------------------------------------
  free energy    TOTEN  =      -377.48510823 eV

  energy without entropy =     -377.48510823  energy(sigma->0) =     -377.48510823


--------------------------------------------------------------------------------------------------------




----------------------------------------- Iteration    1(  13)  ---------------------------------------


    POTLOK:  cpu time    4.62: real time    4.64
    SETDIJ:  cpu time    2.80: real time    2.81
     EDDAV:  cpu time   15.04: real time   16.34
       DOS:  cpu time    0.04: real time    0.04
    CHARGE:  cpu time    5.27: real time    5.27
    MIXING:  cpu time    0.09: real time    0.09
    --------------------------------------------
      LOOP:  cpu time   27.87: real time   29.20

 eigenvalue-minimisations  :   768
 total energy-change (2. order) : 0.2803298E-01  (-0.1939818E-02)
 number of electron     166.0000000 magnetization      -0.0000000
 augmentation part        5.2580213 magnetization      -0.0000228

 Broyden mixing:
  rms(total) = 0.51908E-01    rms(broyden)= 0.51907E-01
  rms(prec ) = 0.78792E-01
  weight for this iteration     100.00

 eigenvalues of (default mixing * dielectric matrix)
  average eigenvalue GAMMA=   1.5514
  3.3951  2.7748  1.6844  0.8881  0.8881  1.0762  1.0762  0.6287

 Free energy of the ion-electron system (eV)
  ---------------------------------------------------
  alpha Z        PSCENC =        12.91687988
  Ewald energy   TEWEN  =     23270.44412648
  -Hartree energ DENC   =    -29162.99464435
  -exchange      EXHF   =         0.00000000
  -V(xc)+E(xc)   XCENC  =       424.00394760
  PAW double counting   =     81310.97182834   -81137.62530753
  entropy T*S    EENTRO =        -0.00000000
  eigenvalues    EBANDS =     -2688.57381687
  atomic energy  EATOM  =      7593.39991119
  ---------------------------------------------------
  free energy    TOTEN  =      -377.45707525 eV

  energy without entropy =     -377.45707525  energy(sigma->0) =     -377.45707525


--------------------------------------------------------------------------------------------------------




----------------------------------------- Iteration    1(  14)  ---------------------------------------


    POTLOK:  cpu time    4.80: real time    4.84
    SETDIJ:  cpu time    2.82: real time    2.83
     EDDAV:  cpu time   15.12: real time   16.42
       DOS:  cpu time    0.05: real time    0.05
    CHARGE:  cpu time    5.25: real time    5.25
    MIXING:  cpu time    0.10: real time    0.10
    --------------------------------------------
      LOOP:  cpu time   28.15: real time   29.48

 eigenvalue-minimisations  :   768
 total energy-change (2. order) : 0.1676231E-01  (-0.2878811E-02)
 number of electron     166.0000000 magnetization      -0.0000000
 augmentation part        5.2627806 magnetization       0.0000373

 Broyden mixing:
  rms(total) = 0.29492E-01    rms(broyden)= 0.29490E-01
  rms(prec ) = 0.44245E-01
  weight for this iteration     100.00

 eigenvalues of (default mixing * dielectric matrix)
  average eigenvalue GAMMA=   1.6226
  4.4630  2.5091  2.1537  1.2674  0.8856  0.8856  0.9060  0.9060  0.6265

 Free energy of the ion-electron system (eV)
  ---------------------------------------------------
  alpha Z        PSCENC =        12.91687988
  Ewald energy   TEWEN  =     23270.44412648
  -Hartree energ DENC   =    -29151.48926573
  -exchange      EXHF   =         0.00000000
  -V(xc)+E(xc)   XCENC  =       424.38022767
  PAW double counting   =     81062.41448217   -80889.16992301
  entropy T*S    EENTRO =        -0.00000000
  eigenvalues    EBANDS =     -2700.33675160
  atomic energy  EATOM  =      7593.39991119
  ---------------------------------------------------
  free energy    TOTEN  =      -377.44031294 eV

  energy without entropy =     -377.44031294  energy(sigma->0) =     -377.44031294


--------------------------------------------------------------------------------------------------------




----------------------------------------- Iteration    1(  15)  ---------------------------------------


    POTLOK:  cpu time    4.61: real time    4.65
    SETDIJ:  cpu time    2.82: real time    2.82
     EDDAV:  cpu time   15.01: real time   16.29
       DOS:  cpu time    0.04: real time    0.05
    CHARGE:  cpu time    5.15: real time    5.17
    MIXING:  cpu time    0.21: real time    0.21
    --------------------------------------------
      LOOP:  cpu time   27.87: real time   29.19

 eigenvalue-minimisations  :   768
 total energy-change (2. order) :-0.3004846E-02  (-0.5945558E-03)
 number of electron     166.0000000 magnetization      -0.0000000
 augmentation part        5.2616489 magnetization      -0.0000356

 Broyden mixing:
  rms(total) = 0.23795E-01    rms(broyden)= 0.23794E-01
  rms(prec ) = 0.32594E-01
  weight for this iteration     100.00

 eigenvalues of (default mixing * dielectric matrix)
  average eigenvalue GAMMA=   1.6161
  4.8120  2.4480  2.1476  1.4185  1.1122  1.1122  0.8806  0.8806  0.6255  0.7235

 Free energy of the ion-electron system (eV)
  ---------------------------------------------------
  alpha Z        PSCENC =        12.91687988
  Ewald energy   TEWEN  =     23270.44412648
  -Hartree energ DENC   =    -29143.76165249
  -exchange      EXHF   =         0.00000000
  -V(xc)+E(xc)   XCENC  =       424.47019918
  PAW double counting   =     81002.48215781   -80829.23553052
  entropy T*S    EENTRO =        -0.00000000
  eigenvalues    EBANDS =     -2708.15940931
  atomic energy  EATOM  =      7593.39991119
  ---------------------------------------------------
  free energy    TOTEN  =      -377.44331778 eV

  energy without entropy =     -377.44331778  energy(sigma->0) =     -377.44331778


--------------------------------------------------------------------------------------------------------




----------------------------------------- Iteration    1(  16)  ---------------------------------------


    POTLOK:  cpu time    4.63: real time    4.65
    SETDIJ:  cpu time    2.82: real time    2.83
     EDDAV:  cpu time   15.01: real time   16.31
       DOS:  cpu time    0.05: real time    0.05
    CHARGE:  cpu time    5.18: real time    5.19
    MIXING:  cpu time    0.19: real time    0.19
    --------------------------------------------
      LOOP:  cpu time   27.87: real time   29.21

 eigenvalue-minimisations  :   768
 total energy-change (2. order) :-0.9471839E-02  (-0.1543333E-03)
 number of electron     166.0000000 magnetization      -0.0000000
 augmentation part        5.2609893 magnetization       0.0000265

 Broyden mixing:
  rms(total) = 0.13158E-01    rms(broyden)= 0.13157E-01
  rms(prec ) = 0.19971E-01
  weight for this iteration     100.00

 eigenvalues of (default mixing * dielectric matrix)
  average eigenvalue GAMMA=   1.7187
  5.6297  2.5400  2.5400  1.9172  1.3483  0.8897  0.8897  0.9805  0.8501  0.6251
  0.6955

 Free energy of the ion-electron system (eV)
  ---------------------------------------------------
  alpha Z        PSCENC =        12.91687988
  Ewald energy   TEWEN  =     23270.44412648
  -Hartree energ DENC   =    -29136.32467901
  -exchange      EXHF   =         0.00000000
  -V(xc)+E(xc)   XCENC  =       424.43712224
  PAW double counting   =     81080.46301679   -80907.18672355
  entropy T*S    EENTRO =        -0.00000000
  eigenvalues    EBANDS =     -2715.60244366
  atomic energy  EATOM  =      7593.39991119
  ---------------------------------------------------
  free energy    TOTEN  =      -377.45278962 eV

  energy without entropy =     -377.45278962  energy(sigma->0) =     -377.45278962


--------------------------------------------------------------------------------------------------------




----------------------------------------- Iteration    1(  17)  ---------------------------------------


    POTLOK:  cpu time    4.64: real time    4.67
    SETDIJ:  cpu time    2.81: real time    2.83
     EDDAV:  cpu time   15.03: real time   16.31
       DOS:  cpu time    0.05: real time    0.05
    CHARGE:  cpu time    5.18: real time    5.21
    MIXING:  cpu time    0.19: real time    0.19
    --------------------------------------------
      LOOP:  cpu time   27.90: real time   29.25

 eigenvalue-minimisations  :   768
 total energy-change (2. order) :-0.6312065E-02  (-0.1309020E-03)
 number of electron     166.0000000 magnetization      -0.0000000
 augmentation part        5.2629004 magnetization      -0.0000160

 Broyden mixing:
  rms(total) = 0.84517E-02    rms(broyden)= 0.84515E-02
  rms(prec ) = 0.12120E-01
  weight for this iteration     100.00

 eigenvalues of (default mixing * dielectric matrix)
  average eigenvalue GAMMA=   1.7614
  6.4536  2.7993  2.7993  1.6162  1.3580  1.2032  0.8875  0.8875  0.9239  0.9239
  0.6231  0.6608

 Free energy of the ion-electron system (eV)
  ---------------------------------------------------
  alpha Z        PSCENC =        12.91687988
  Ewald energy   TEWEN  =     23270.44412648
  -Hartree energ DENC   =    -29129.23761904
  -exchange      EXHF   =         0.00000000
  -V(xc)+E(xc)   XCENC  =       424.40690161
  PAW double counting   =     81143.77378216   -80970.48915008
  entropy T*S    EENTRO =        -0.00000000
  eigenvalues    EBANDS =     -2722.67393388
  atomic energy  EATOM  =      7593.39991119
  ---------------------------------------------------
  free energy    TOTEN  =      -377.45910169 eV

  energy without entropy =     -377.45910169  energy(sigma->0) =     -377.45910169


--------------------------------------------------------------------------------------------------------




----------------------------------------- Iteration    1(  18)  ---------------------------------------


    POTLOK:  cpu time    4.64: real time    4.67
    SETDIJ:  cpu time    2.76: real time    2.82
     EDDAV:  cpu time   15.02: real time   16.31
       DOS:  cpu time    0.06: real time    0.06
    CHARGE:  cpu time    5.15: real time    5.17
    MIXING:  cpu time    0.27: real time    0.27
    --------------------------------------------
      LOOP:  cpu time   27.91: real time   29.30

 eigenvalue-minimisations  :   768
 total energy-change (2. order) :-0.4168883E-02  (-0.4899313E-04)
 number of electron     166.0000000 magnetization      -0.0000000
 augmentation part        5.2641462 magnetization       0.0000151

 Broyden mixing:
  rms(total) = 0.70375E-02    rms(broyden)= 0.70374E-02
  rms(prec ) = 0.91495E-02
  weight for this iteration     100.00

 eigenvalues of (default mixing * dielectric matrix)
[...]
 12.563   0.000  21.159   0.000   0.000   0.000   0.004   0.000   0.001   0.000   0.001   0.000   0.008   0.000   0.003   0.000
 21.159   0.000  35.638   0.000   0.001   0.000   0.007   0.000   0.002   0.000   0.001   0.000   0.013   0.000   0.004   0.000
  0.000   0.000   0.001   0.000  -3.541   0.000   0.000   0.000   0.000   0.000  -6.364   0.000   0.000   0.000   0.000   0.000
  0.004   0.000   0.007   0.000   0.000   0.000  -3.541   0.000  -0.000   0.000   0.000   0.000  -6.364   0.000  -0.001   0.000
  0.001   0.000   0.002   0.000   0.000   0.000  -0.000   0.000  -3.540   0.000   0.000   0.000  -0.001   0.000  -6.362   0.000
  0.001   0.000   0.001   0.000  -6.364   0.000   0.000   0.000   0.000   0.000 -11.416   0.000   0.000   0.000   0.000   0.000
  0.008   0.000   0.013   0.000   0.000   0.000  -6.364   0.000  -0.001   0.000   0.000   0.000 -11.415   0.000  -0.001   0.000
  0.003   0.000   0.004   0.000   0.000   0.000  -0.001   0.000  -6.362   0.000   0.000   0.000  -0.001   0.000 -11.412   0.000
 pseudopotential strength for first ion, spin component:           2
 12.563   0.000  21.159   0.000   0.000   0.000   0.004   0.000   0.001   0.000   0.001   0.000   0.008   0.000   0.003   0.000
 21.159   0.000  35.638   0.000   0.001   0.000   0.007   0.000   0.002   0.000   0.001   0.000   0.013   0.000   0.004   0.000
  0.000   0.000   0.001   0.000  -3.541   0.000   0.000   0.000   0.000   0.000  -6.364   0.000   0.000   0.000   0.000   0.000
  0.004   0.000   0.007   0.000   0.000   0.000  -3.541   0.000  -0.000   0.000   0.000   0.000  -6.364   0.000  -0.001   0.000
  0.001   0.000   0.002   0.000   0.000   0.000  -0.000   0.000  -3.540   0.000   0.000   0.000  -0.001   0.000  -6.362   0.000
  0.001   0.000   0.001   0.000  -6.364   0.000   0.000   0.000   0.000   0.000 -11.416   0.000   0.000   0.000   0.000   0.000
  0.008   0.000   0.013   0.000   0.000   0.000  -6.364   0.000  -0.001   0.000   0.000   0.000 -11.415   0.000  -0.001   0.000
  0.003   0.000   0.004   0.000   0.000   0.000  -0.001   0.000  -6.362   0.000   0.000   0.000  -0.001   0.000 -11.412   0.000
 total augmentation occupancy for first ion, spin component:           1
  1.095  -0.118   0.154   0.527   0.155  -0.060  -0.195  -0.057
 -0.118   0.393  -0.067  -0.236  -0.070   0.023   0.068   0.019
  0.154  -0.067   3.142  -0.162  -0.149  -0.586   0.074   0.053
  0.527  -0.236  -0.162   2.624   0.586   0.074  -0.392  -0.167
  0.155  -0.070  -0.149   0.586   0.923   0.053  -0.167   0.089
 -0.060   0.023  -0.586   0.074   0.053   0.168  -0.029  -0.013
 -0.195   0.068   0.074  -0.392  -0.167  -0.029   0.107   0.016
 -0.057   0.019   0.053  -0.167   0.089  -0.013   0.016   0.064
 total augmentation occupancy for first ion, spin component:           2
 -0.000   0.000   0.000   0.000   0.000  -0.000  -0.000   0.000
  0.000   0.000   0.000   0.000  -0.000  -0.000  -0.000  -0.000
  0.000   0.000   0.000   0.000   0.000  -0.000   0.000  -0.000
  0.000   0.000   0.000   0.000  -0.000  -0.000  -0.000   0.000
  0.000  -0.000   0.000  -0.000   0.000  -0.000  -0.000  -0.000
 -0.000  -0.000  -0.000  -0.000  -0.000   0.000   0.000   0.000
 -0.000  -0.000   0.000  -0.000  -0.000   0.000  -0.000   0.000
  0.000  -0.000  -0.000   0.000  -0.000   0.000   0.000  -0.000


------------------------ aborting loop because EDIFF is reached ----------------------------------------


    CHARGE:  cpu time    5.15: real time    5.24
    FORLOC:  cpu time    0.62: real time    0.62
    FORNL :  cpu time   19.50: real time   19.53
    STRESS:  cpu time   61.26: real time   61.37
    FORCOR:  cpu time    4.22: real time    4.24
    FORHAR:  cpu time    1.00: real time    1.00
    MIXING:  cpu time    0.21: real time    0.21
    OFIELD:  cpu time    0.00: real time    0.00

  FORCE on cell =-STRESS in cart. coord.  units (eV):
  Direction    XX          YY          ZZ          XY          YZ          ZX
  --------------------------------------------------------------------------------------
  Alpha Z    12.91688    12.91688    12.91688
  Ewald   11089.15033  5585.77434  6595.50500   371.90509 -1590.52848   933.65694
  Hartree 12496.47774  7795.17146  8827.35266    94.67798 -1446.17053   738.50593
  E(xc)    -689.10717  -691.41579  -692.10580     1.39169    -0.14621     0.70282
  Local  -25960.24870-15783.49885-17845.83656  -445.57942  3032.40776 -1671.19549
  n-local   -28.70112   -28.31794   -32.00063     3.50062    -1.05064    -1.00209
  augment    82.79629    84.23182    83.13875     1.48784     0.57379     0.50500
  Kinetic  2983.98249  3009.86366  3035.20031   -27.04941     4.97579    -2.17231
  Fock        0.00000     0.00000     0.00000     0.00000     0.00000     0.00000
  -------------------------------------------------------------------------------------
  Total     -12.73325   -15.27442   -15.82939     0.33439     0.06147    -0.99921
  in kB      -2.55011    -3.05904    -3.17019     0.06697     0.01231    -0.20011
  external pressure =       -2.93 kB  Pullay stress =        0.00 kB


 VOLUME and BASIS-vectors are now :
 -----------------------------------------------------------------------------
  energy-cutoff  :      700.00
  volume of cell :     8000.00
      direct lattice vectors                 reciprocal lattice vectors
    20.000000000  0.000000000  0.000000000     0.050000000  0.000000000  0.000000000
     0.000000000 20.000000000  0.000000000     0.000000000  0.050000000  0.000000000
     0.000000000  0.000000000 20.000000000     0.000000000  0.000000000  0.050000000

  length of vectors
    20.000000000 20.000000000 20.000000000     0.050000000  0.050000000  0.050000000


 FORCES acting on ions
    electron-ion (+dipol)            ewald-force                    non-local-force                 convergence-correction
 -----------------------------------------------------------------------------------------------
   0.986E+02 -.107E+02 0.374E+03   -.995E+02 0.104E+02 -.376E+03   0.934E+00 0.242E+00 0.284E+01   -.144E-04 0.530E-04 -.421E-04
   0.323E+03 -.346E+02 -.117E+03   -.325E+03 0.344E+02 0.117E+03   0.233E+01 0.241E+00 -.344E+00   -.593E-05 0.831E-05 0.283E-04
   0.653E+02 0.860E+02 0.310E+03   -.662E+02 -.914E+02 -.313E+03   0.606E+00 0.605E+01 0.198E+01   -.312E-04 0.271E-04 -.734E-04
   0.311E+01 -.319E+03 0.273E+02   -.298E+01 0.326E+03 -.257E+02   -.196E+00 -.686E+01 -.173E+01   -.262E-04 0.462E-04 -.259E-04
   0.358E+02 -.328E+03 0.103E+03   -.358E+02 0.331E+03 -.102E+03   0.483E-01 -.265E+01 -.504E+00   -.913E-05 0.111E-04 -.376E-04
   0.803E+02 -.218E+03 0.262E+03   -.808E+02 0.223E+03 -.263E+03   0.574E+00 -.633E+01 0.685E+00   -.502E-05 0.197E-05 -.414E-04
   0.747E+02 0.267E+03 -.218E+03   -.752E+02 -.269E+03 0.220E+03   0.449E+00 0.148E+01 -.143E+01   0.853E-05 -.305E-04 0.285E-04
   0.151E+03 0.255E+03 -.164E+03   -.155E+03 -.260E+03 0.168E+03   0.405E+01 0.479E+01 -.388E+01   -.833E-06 -.273E-05 0.167E-04
   -.226E+03 0.123E+03 -.137E+03   0.231E+03 -.124E+03 0.140E+03   -.529E+01 0.119E+01 -.286E+01   0.339E-04 -.126E-05 0.638E-05
   -.257E+03 0.143E+03 -.181E+03   0.259E+03 -.145E+03 0.183E+03   -.121E+01 0.130E+01 -.172E+01   0.274E-04 -.781E-06 -.734E-05
   -.338E+03 -.697E+02 -.106E+01   0.340E+03 0.701E+02 0.107E+01   -.197E+01 -.461E+00 -.142E-01   0.278E-04 0.294E-05 0.668E-05
   -.258E+03 -.192E+03 0.137E+03   0.260E+03 0.194E+03 -.137E+03   -.161E+01 -.110E+01 0.604E+00   0.398E-04 0.137E-04 -.595E-05
   -.181E+03 -.214E+03 0.186E+03   0.185E+03 0.219E+03 -.190E+03   -.376E+01 -.474E+01 0.361E+01   0.387E-04 0.113E-04 -.122E-04
   -.265E+03 0.638E+02 -.925E+02   0.270E+03 -.657E+02 0.955E+02   -.486E+01 0.197E+01 -.299E+01   0.287E-04 -.359E-04 0.330E-04
   -.315E+03 0.612E+02 -.112E+03   0.317E+03 -.611E+02 0.113E+03   -.231E+01 -.124E+00 -.436E+00   -.604E-06 -.202E-04 0.140E-04
   -.122E+03 0.232E+03 -.238E+03   0.123E+03 -.233E+03 0.240E+03   -.573E+00 0.135E+01 -.152E+01   0.280E-04 -.315E-04 0.245E-04
   0.271E+03 -.290E+02 -.104E+03   -.276E+03 0.308E+02 0.107E+03   0.501E+01 -.179E+01 -.279E+01   -.244E-04 0.317E-04 0.334E-04
   0.127E+03 -.218E+03 -.261E+03   -.128E+03 0.219E+03 0.263E+03   0.661E+00 -.126E+01 -.158E+01   -.284E-04 0.284E-04 0.385E-04
   -.744E+02 -.256E+03 -.246E+03   0.747E+02 0.257E+03 0.248E+03   -.335E+00 -.139E+01 -.153E+01   -.142E-04 0.214E-04 0.321E-04
   -.158E+03 -.237E+03 -.197E+03   0.162E+03 0.241E+03 0.201E+03   -.405E+01 -.468E+01 -.420E+01   -.155E-04 -.126E-04 0.917E-05
   0.232E+03 -.957E+02 -.158E+03   -.238E+03 0.967E+02 0.161E+03   0.561E+01 -.929E+00 -.274E+01   -.105E-04 0.679E-05 0.775E-05
   0.265E+03 -.124E+03 -.201E+03   -.266E+03 0.125E+03 0.202E+03   0.121E+01 -.122E+01 -.183E+01   -.176E-04 0.296E-05 0.619E-05
   0.147E+03 0.265E+03 0.192E+03   -.151E+03 -.270E+03 -.195E+03   0.340E+01 0.487E+01 0.383E+01   -.349E-04 -.232E-04 -.193E-04
   0.241E+03 0.224E+03 0.143E+03   -.243E+03 -.225E+03 -.143E+03   0.156E+01 0.117E+01 0.710E+00   -.402E-04 -.346E-04 -.165E-04
   0.337E+03 0.959E+02 0.270E+01   -.339E+03 -.964E+02 -.280E+01   0.194E+01 0.532E+00 0.849E-01   -.332E-04 -.252E-04 0.134E-04
   0.452E+02 0.805E+02 -.636E+02   -.488E+02 -.843E+02 0.665E+02   0.363E+01 0.381E+01 -.289E+01   -.255E-05 -.150E-04 0.117E-04
   -.418E+02 0.694E+02 -.756E+02   0.442E+02 -.731E+02 0.798E+02   -.243E+01 0.361E+01 -.418E+01   0.719E-05 -.152E-04 0.122E-04
   -.992E+02 0.278E+02 -.485E+02   0.105E+03 -.276E+02 0.498E+02   -.582E+01 -.256E+00 -.125E+01   0.560E-05 -.506E-05 0.115E-05
   -.408E+02 0.150E+03 0.158E+02   0.426E+02 -.157E+03 -.124E+02   -.180E+01 0.756E+01 -.337E+01   0.174E-05 -.215E-05 0.346E-05
   0.101E+03 -.225E+02 -.518E+02   -.107E+03 0.220E+02 0.530E+02   0.582E+01 0.412E+00 -.121E+01   -.694E-05 0.420E-05 0.660E-05
   0.800E+02 0.679E+02 -.317E+02   -.858E+02 -.680E+02 0.304E+02   0.587E+01 0.138E+00 0.133E+01   -.531E-05 -.145E-05 0.382E-05
   0.268E+02 -.678E+02 0.816E+02   -.284E+02 0.715E+02 -.862E+02   0.156E+01 -.385E+01 0.451E+01   0.163E-05 0.411E-05 -.526E-05
   0.583E+01 -.111E+03 0.851E+01   -.580E+01 0.117E+03 -.746E+01   -.471E-01 -.594E+01 -.113E+01   -.113E-05 0.905E-05 -.919E-05
   -.142E+02 -.101E+03 -.347E+02   0.158E+02 0.104E+03 0.402E+02   -.158E+01 -.210E+01 -.550E+01   -.760E-05 0.284E-05 -.762E-05
   -.101E+03 0.260E+02 0.116E+03   0.108E+03 -.238E+02 -.120E+03   -.652E+01 -.228E+01 0.483E+01   0.296E-05 0.241E-05 -.129E-05
   -.915E+02 0.385E+02 -.536E+02   0.948E+02 -.418E+02 0.573E+02   -.330E+01 0.324E+01 -.376E+01   0.270E-05 -.350E-05 0.136E-05
   -.661E+02 -.714E+02 0.546E+02   0.686E+02 0.756E+02 -.580E+02   -.246E+01 -.425E+01 0.344E+01   0.121E-04 0.740E-05 -.525E-05
   0.172E+02 0.723E+02 0.877E+02   -.172E+02 -.783E+02 -.884E+02   0.145E-01 0.612E+01 0.617E+00   -.274E-05 -.121E-05 -.750E-05
   0.418E+01 0.906E+02 0.772E+02   -.594E+00 -.937E+02 -.809E+02   -.358E+01 0.301E+01 0.372E+01   -.250E-05 -.622E-05 -.772E-05
   0.603E+02 0.772E+02 0.570E+02   -.626E+02 -.815E+02 -.606E+02   0.229E+01 0.426E+01 0.355E+01   -.118E-04 -.105E-04 -.532E-05
   -.105E+03 -.197E+02 -.456E+01   0.111E+03 0.206E+02 0.503E+01   -.593E+01 -.945E+00 -.470E+00   0.163E-04 0.480E-05 -.288E-06
   -.837E+02 -.640E+02 -.383E+02   0.896E+02 0.642E+02 0.370E+02   -.588E+01 -.241E+00 0.129E+01   0.926E-06 -.191E-05 0.407E-05
   0.303E+02 0.240E+02 0.110E+03   -.316E+02 -.261E+02 -.115E+03   0.160E+01 0.255E+01 0.552E+01   0.145E-05 0.120E-04 0.155E-05
   -.453E+02 -.783E+02 -.699E+02   0.489E+02 0.821E+02 0.730E+02   -.358E+01 -.373E+01 -.304E+01   0.121E-06 0.127E-04 0.140E-04
   0.946E+02 -.331E+02 -.544E+02   -.981E+02 0.362E+02 0.581E+02   0.345E+01 -.311E+01 -.372E+01   -.554E-05 0.442E-06 0.657E-05
   0.105E+03 0.253E+02 -.246E+01   -.111E+03 -.264E+02 0.277E+01   0.591E+01 0.109E+01 -.308E+00   -.175E-04 -.990E-05 0.303E-05
   -.230E+02 -.759E+02 0.736E+02   0.197E+02 0.790E+02 -.774E+02   0.338E+01 -.315E+01 0.376E+01   0.181E-05 0.649E-05 -.873E-05
   0.432E+02 -.658E+02 -.805E+02   -.457E+02 0.692E+02 0.848E+02   0.248E+01 -.342E+01 -.430E+01   -.790E-05 0.129E-04 0.154E-04
   0.300E+02 -.140E+03 0.220E+03   -.241E+02 0.126E+03 -.201E+03   -.597E+01 0.139E+02 -.184E+02   -.234E-04 0.569E-04 -.105E-04
   0.232E+03 0.164E+03 0.607E+02   -.212E+03 -.161E+03 -.619E+02   -.198E+02 -.311E+01 0.124E+01   -.287E-04 0.247E-04 0.315E-04
   -.409E+02 0.233E+03 -.159E+03   0.325E+02 -.222E+03 0.147E+03   0.835E+01 -.113E+02 0.129E+02   0.472E-04 0.714E-05 0.157E-04
   0.386E+02 -.196E+03 -.198E+03   -.309E+02 0.186E+03 0.186E+03   -.767E+01 0.955E+01 0.122E+02   -.319E-04 0.186E-06 0.176E-04
   -.253E+03 -.952E+02 0.669E+02   0.233E+03 0.926E+02 -.685E+02   0.203E+02 0.253E+01 0.157E+01   0.260E-04 -.403E-04 0.380E-04
   -.123E+03 0.405E+03 0.421E+03   0.841E+02 -.388E+03 -.423E+03   0.392E+02 -.171E+02 0.162E+01   -.566E-06 0.550E-05 -.765E-05
   -.753E+02 0.132E+03 0.225E+03   0.743E+02 -.129E+03 -.220E+03   0.114E+01 -.251E+01 -.475E+01   0.134E-04 0.106E-04 0.301E-04
 -----------------------------------------------------------------------------------------------
   -.310E+02 0.138E+02 0.139E+02   0.000E+00 -.142E-12 0.284E-13   0.310E+02 -.138E+02 -.139E+02   -.941E-04 0.120E-03 0.158E-03
 
 
 POSITION                                       TOTAL-FORCE (eV/Angst)
 -----------------------------------------------------------------------------------
      8.75875     11.31222      6.55140         0.098747     -0.009719      0.324163
      5.86694      9.53439     11.36602         0.009055      0.018826      0.009301
      9.11624     10.48468      7.61029        -0.242976      0.673523     -0.592044
      9.47459     12.30603      8.99730        -0.072093      0.157884     -0.150068
      9.11904     13.19266      7.98704         0.004893     -0.106001      0.022762
      8.75715     12.69444      6.73519        -0.000561     -0.810331     -0.095842
     10.46158      6.59100     13.49490         0.019225     -0.006629      0.009219
      9.94203      7.43809     12.52376        -0.035240      0.028006     -0.046312
     12.04547      8.38666     12.11872        -0.008224      0.017888     -0.012108
     12.61928      7.55238     13.08448        -0.000550      0.016228     -0.017097
     14.79299     10.57118     10.69264        -0.011720     -0.001995     -0.003084
     14.01643     11.32257      9.80881        -0.006301      0.024251     -0.023929
     12.65158     11.07272      9.73048         0.005196     -0.049398      0.052076
     12.79043      9.38554     11.34657        -0.017616      0.011783     -0.007227
     14.16878      9.59490     11.46294         0.000844      0.005091     -0.001668
     11.82695      6.64488     13.78060        -0.028461     -0.001906     -0.004317
      7.24231      9.77330     11.28348        -0.004356     -0.032915     -0.006678
      8.15819     12.44233     13.81164         0.023363      0.002305     -0.002517
      9.52399     12.52132     13.53212        -0.011818      0.020111      0.018682
     10.05904     11.71816     12.53361         0.010981     -0.012791     -0.021341
      7.96508     10.76003     12.08522         0.024017      0.012821      0.021374
      7.38092     11.55121     13.07965        -0.017516     -0.012452     -0.012649
      7.45796      8.11597      9.64469         0.015272      0.022904     -0.000605
      6.09730      7.83470      9.68863        -0.031330     -0.007794     -0.012086
      5.28440      8.55710     10.56432         0.011970     -0.017382     -0.014449
      9.79795      5.90212     14.01497        -0.003421     -0.001693     -0.000413
     12.26685      5.99367     14.53463         0.001685     -0.003443      0.004050
     13.68484      7.61538     13.29576        -0.002051      0.000614      0.000307
     10.84507      7.24677      9.22597         0.001186     -0.038179     -0.006777
      6.31582     11.46138     13.28407        -0.001874      0.004838      0.004006
      8.88327      7.42377     12.27295        -0.001720     -0.011381      0.008811
      8.47853     13.36665      5.92453        -0.019220     -0.156275     -0.092074
      9.12855     14.26265      8.19005        -0.021341     -0.005308     -0.082667
      9.76183     12.67176      9.98145         0.003208     -0.008774      0.007562
     11.38256      8.36174      8.29610         0.054420     -0.052004      0.030719
     14.75349      8.99278     12.15530         0.005592      0.002247      0.000006
     14.45552     12.09620      9.18096         0.010134      0.002424     -0.001331
      9.11405      9.40258      7.49376        -0.051277      0.050162     -0.152775
      8.12287      7.57771      8.97051         0.006630     -0.034696      0.008420
      5.68876      7.06123      9.04041        -0.004406     -0.011751      0.003284
     15.86530     10.74076     10.77851        -0.000308      0.004673     -0.000281
     11.11794     11.75383     12.28812         0.013956     -0.003616      0.011129
      8.48240     10.86572      5.59722         0.282756      0.504886      1.010367
     10.17895     13.19691     14.08003         0.002976      0.002007      0.001831
      5.25320     10.11370     12.05309        -0.004725     -0.004861      0.000933
      4.21445      8.36275     10.62101        -0.005790     -0.005433      0.001403
     12.01813     11.63958      9.05085         0.039403      0.011315     -0.007046
      7.70887     13.05934     14.58823        -0.002881      0.004852      0.006867
      9.48490     10.95884      8.82805        -0.041673     -0.292143     -0.137240
      8.03610      9.06122     10.42169        -0.135076     -0.048887      0.014695
     10.70414      8.32170     11.83465        -0.007689     -0.009148      0.041631
      9.30896     10.85100     11.80824        -0.022022      0.090548      0.067114
     12.02768     10.13012     10.47953         0.093966     -0.004703      0.024308
     10.61480      8.11252      8.84309        -0.018761      0.077999     -0.038208
     10.01771      9.61740     10.38685         0.093521     -0.006578     -0.162189
 -----------------------------------------------------------------------------------
    total drift:                                0.006842     -0.003211      0.003037


--------------------------------------------------------------------------------------------------------



  FREE ENERGIE OF THE ION-ELECTRON SYSTEM (eV)
  ---------------------------------------------------
  free  energy   TOTEN  =      -377.47496205 eV

  energy  without entropy=     -377.47496205  energy(sigma->0) =     -377.47496205
 


--------------------------------------------------------------------------------------------------------


    POTLOK:  cpu time    7.65: real time    7.68


--------------------------------------------------------------------------------------------------------


 writing wavefunctions
     LOOP+:  cpu time 1037.84: real time 1078.64
    4ORBIT:  cpu time    0.00: real time    0.00

 total amount of memory used by VASP on root node   877132. kBytes
========================================================================

   base      :      30000. kBytes
   nonlr-proj:      19361. kBytes
   fftplans  :     269516. kBytes
   grid      :     534988. kBytes
   one-center:       1710. kBytes
   wavefun   :      21557. kBytes
 
  
  
 General timing and accounting informations for this job:
 ========================================================
  
                  Total CPU time used (sec):     1304.844
                            User time (sec):     1143.281
                          System time (sec):      161.562
                         Elapsed time (sec):     1349.190
  
                   Maximum memory used (kb):     1490484.
                   Average memory used (kb):           0.
  
                          Minor page faults:      7042136
                          Major page faults:            2
                 Voluntary context switches:       286087
