<?xml version="1.0" encoding="ISO-8859-1"?>
<modeling>
 <generator>
  <i name="program" type="string">vasp </i>
  <i name="version" type="string">5.3.5  </i>
  <i name="subversion" type="string">31Mar14 (build Apr 08 2014 12:00:03) complex                          parallel </i>
  <i name="platform" type="string">NSC-NSCPATCH-BUILD02 </i>
  <i name="date" type="string">2017 03 15 </i>
  <i name="time" type="string">18:38:23 </i>
 </generator>
 <incar>
  <i type="string" name="SYSTEM"> c2_oh2_ruthenium_mol</i>
  <i type="int" name="ISTART">     0</i>
  <i type="string" name="PREC">accurate</i>
  <i type="int" name="IALGO">    38</i>
  <i type="logical" name="ADDGRID"> T  </i>
  <i type="int" name="ISPIN">     2</i>
  <i name="BMIX">      2.00000000</i>
  <i type="int" name="ICHARG">     2</i>
  <i name="EDIFF">      0.00001000</i>
  <i name="EDIFFG">     -0.01000000</i>
  <i name="ENCUT">    700.00000000</i>
  <i name="POTIM">      0.50000000</i>
  <i name="NUPDOWN">      0.00000000</i>
  <i name="NELECT">    166.00000000</i>
  <i type="string" name="LREAL"> Auto</i>
  <i name="TIME">      0.05000000</i>
  <i type="int" name="ISMEAR">     0</i>
  <i name="SIGMA">      0.01000000</i>
  <i type="int" name="ICORELEVEL">     2</i>
  <i type="int" name="CLNT">     1</i>
  <i type="int" name="CLN">     1</i>
  <i type="int" name="INCAR     ">     0</i>
  <i name="CLZ">      0.50000000</i>
 </incar>
 <kpoints>
  <generation param="Monkhorst-Pack">
   <v type="int" name="divisions">       1        1        1 </v>
   <v name="usershift">      0.00000000       0.00000000       0.00000000 </v>
   <v name="genvec1">      1.00000000       0.00000000       0.00000000 </v>
   <v name="genvec2">      0.00000000       1.00000000       0.00000000 </v>
   <v name="genvec3">      0.00000000       0.00000000       1.00000000 </v>
   <v name="shift">      0.00000000       0.00000000       0.00000000 </v>
  </generation>
  <varray name="kpointlist" >
   <v>       0.00000000       0.00000000       0.00000000 </v>
  </varray>
  <varray name="weights" >
   <v>       1.00000000 </v>
  </varray>
 </kpoints>
 <parameters>
  <separator name="general" >
   <i type="string" name="SYSTEM">c2_oh2_ruthenium_mol</i>
   <i type="logical" name="LCOMPAT"> F  </i>
  </separator>
  <separator name="electronic" >
   <i type="string" name="PREC">accura</i>
   <i name="ENMAX">    700.00000000</i>
   <i name="ENAUG">    946.76800000</i>
   <i name="EDIFF">      0.00001000</i>
   <i type="int" name="IALGO">    38</i>
   <i type="int" name="IWAVPR">    10</i>
   <i type="int" name="NBANDS">   128</i>
   <i name="NELECT">    166.00000000</i>
   <i type="int" name="TURBO">     0</i>
   <i type="int" name="IRESTART">     0</i>
   <i type="int" name="NREBOOT">     0</i>
   <i type="int" name="NMIN">     0</i>
   <i name="EREF">      0.00000000</i>
   <separator name="electronic smearing" >
    <i type="int" name="ISMEAR">     0</i>
    <i name="SIGMA">      0.01000000</i>
    <i name="KSPACING">      0.50000000</i>
    <i type="logical" name="KGAMMA"> T  </i>
   </separator>
   <separator name="electronic projectors" >
    <i type="logical" name="LREAL"> T  </i>
    <v name="ROPT">     -0.00025000     -0.00025000     -0.00025000     -0.00025000     -0.00025000     -0.00025000</v>
    <i type="int" name="LMAXPAW">  -100</i>
    <i type="int" name="LMAXMIX">     2</i>
    <i type="logical" name="NLSPLINE"> F  </i>
   </separator>
   <separator name="electronic startup" >
    <i type="int" name="ISTART">     0</i>
    <i type="int" name="ICHARG">     2</i>
    <i type="int" name="INIWAV">     1</i>
   </separator>
   <separator name="electronic spin" >
    <i type="int" name="ISPIN">     2</i>
    <i type="logical" name="LNONCOLLINEAR"> F  </i>
    <v name="MAGMOM">      0.00000000      0.00000000      0.00000000      0.00000000      0.00000000      0.00000000      0.00000000      0.00000000      0.00000000      0.00000000      0.00000000      0.00000000      0.00000000      0.00000000      0.00000000      0.00000000      0.00000000      0.00000000      0.00000000      0.00000000
      0.00000000      0.00000000      0.00000000      0.00000000      0.00000000      0.00000000      0.00000000      0.00000000      0.00000000      0.00000000      0.00000000      0.00000000      0.00000000      0.00000000      0.00000000      0.00000000      0.00000000      0.00000000      0.00000000      0.00000000
      0.00000000      0.00000000      0.00000000      0.00000000      0.00000000      0.00000000      0.00000000      0.00000000      0.00000000      0.00000000      0.00000000      0.00000000      0.00000000      0.00000000      0.00000000</v>
    <i name="NUPDOWN">      0.00000000</i>
    <i type="logical" name="LSORBIT"> F  </i>
    <v name="SAXIS">      0.00000000      0.00000000      1.00000000</v>
    <i type="logical" name="LSPIRAL"> F  </i>
    <v name="QSPIRAL">      0.00000000      0.00000000      0.00000000</v>
    <i type="logical" name="LZEROZ"> F  </i>
   </separator>
   <separator name="electronic exchange-correlation" >
    <i type="logical" name="LASPH"> F  </i>
    <i type="logical" name="LMETAGGA"> F  </i>
   </separator>
   <separator name="electronic convergence" >
    <i type="int" name="NELM">    60</i>
    <i type="int" name="NELMDL">    -5</i>
    <i type="int" name="NELMIN">     2</i>
    <i name="ENINI">    700.00000000</i>
    <separator name="electronic convergence detail" >
     <i type="logical" name="LDIAG"> T  </i>
     <i type="logical" name="LSUBROT"> F  </i>
     <i name="WEIMIN">      0.00000000</i>
     <i name="EBREAK">      0.00000002</i>
     <i name="DEPER">      0.30000000</i>
     <i type="int" name="NRMM">     4</i>
     <i name="TIME">      0.05000000</i>
    </separator>
   </separator>
   <separator name="electronic mixer" >
    <i name="AMIX">      0.40000000</i>
    <i name="BMIX">      2.00000000</i>
    <i name="AMIN">      0.10000000</i>
    <i name="AMIX_MAG">      1.60000000</i>
    <i name="BMIX_MAG">      2.00000000</i>
    <separator name="electronic mixer details" >
     <i type="int" name="IMIX">     4</i>
     <i type="int" name="MAXMIX">   -45</i>
     <i name="WC">    100.00000000</i>
     <i type="int" name="INIMIX">     1</i>
     <i type="int" name="MIXPRE">     1</i>
     <i type="int" name="MREMOVE">     5</i>
    </separator>
   </separator>
   <separator name="electronic dipolcorrection" >
    <i type="logical" name="LDIPOL"> F  </i>
    <i type="logical" name="LMONO"> F  </i>
    <i type="int" name="IDIPOL">     0</i>
    <i name="EPSILON">      1.00000000</i>
    <v name="DIPOL">   -100.00000000   -100.00000000   -100.00000000</v>
    <i name="EFIELD">      0.00000000</i>
   </separator>
  </separator>
  <separator name="grids" >
   <i type="int" name="NGX">   180</i>
   <i type="int" name="NGY">   180</i>
   <i type="int" name="NGZ">   180</i>
   <i type="int" name="NGXF">   360</i>
   <i type="int" name="NGYF">   360</i>
   <i type="int" name="NGZF">   360</i>
   <i type="logical" name="ADDGRID"> T  </i>
  </separator>
  <separator name="ionic" >
   <i type="int" name="NSW">     0</i>
   <i type="int" name="IBRION">    -1</i>
   <i type="int" name="ISIF">     2</i>
   <i name="PSTRESS">      0.00000000</i>
   <i name="EDIFFG">     -0.01000000</i>
   <i type="int" name="NFREE">     0</i>
   <i name="POTIM">      0.50000000</i>
   <i name="SMASS">     -3.00000000</i>
   <i name="SCALEE">      1.00000000</i>
  </separator>
  <separator name="ionic md" >
   <i name="TEBEG">      0.00010000</i>
   <i name="TEEND">      0.00010000</i>
   <i type="int" name="NBLOCK">     1</i>
   <i type="int" name="KBLOCK">     1</i>
   <i type="int" name="NPACO">   256</i>
   <i name="APACO">     16.00000000</i>
  </separator>
  <separator name="symmetry" >
   <i type="int" name="ISYM">     2</i>
   <i name="SYMPREC">      0.00001000</i>
  </separator>
  <separator name="dos" >
   <i type="logical" name="LORBIT"> F  </i>
   <v name="RWIGS">     -1.00000000     -1.00000000     -1.00000000     -1.00000000     -1.00000000     -1.00000000</v>
   <i type="int" name="NEDOS">   301</i>
   <i name="EMIN">     10.00000000</i>
   <i name="EMAX">    -10.00000000</i>
   <i name="EFERMI">      0.00000000</i>
  </separator>
  <separator name="writing" >
   <i type="int" name="NWRITE">     2</i>
   <i type="logical" name="LWAVE"> T  </i>
   <i type="logical" name="LCHARG"> T  </i>
   <i type="logical" name="LPARD"> F  </i>
   <i type="logical" name="LVTOT"> F  </i>
   <i type="logical" name="LVHAR"> F  </i>
   <i type="logical" name="LELF"> F  </i>
   <i type="logical" name="LOPTICS"> F  </i>
   <v name="STM">      0.00000000      0.00000000      0.00000000      0.00000000      0.00000000      0.00000000      0.00000000</v>
  </separator>
  <separator name="performance" >
   <i type="int" name="NPAR">    64</i>
   <i type="int" name="NSIM">     4</i>
   <i type="int" name="NBLK">    -1</i>
   <i type="logical" name="LPLANE"> T  </i>
   <i type="logical" name="LSCALAPACK"> T  </i>
   <i type="logical" name="LSCAAWARE"> F  </i>
   <i type="logical" name="LSCALU"> F  </i>
   <i type="logical" name="LASYNC"> F  </i>
   <i type="logical" name="LORBITALREAL"> F  </i>
  </separator>
  <separator name="miscellaneous" >
   <i type="int" name="IDIOT">     3</i>
   <i type="logical" name="LMUSIC"> F  </i>
   <v name="POMASS">     12.01100000     12.01100000      1.00000000     14.00100000     16.00000000    101.07000000</v>
   <v name="DARWINR">      0.00000000      0.00000000      0.00000000      0.00000000      0.00000000      0.00000000</v>
   <v name="DARWINV">      1.00000000      1.00000000      1.00000000      1.00000000      1.00000000      1.00000000</v>
   <i type="logical" name="LCORR"> T  </i>
  </separator>
  <i type="logical" name="GGA_COMPAT"> T  </i>
  <i type="logical" name="LBERRY"> F  </i>
  <i type="int" name="ICORELEVEL">     2</i>
  <i type="int" name="CLNT">     1</i>
  <i type="int" name="CLN">     1</i>
  <i type="int" name="CLL">     0</i>
  <i name="CLZ">      0.50000000</i>
  <i type="logical" name="LDAU"> F  </i>
  <i type="int" name="I_CONSTRAINED_M">     0</i>
  <separator name="electronic exchange-correlation" >
   <i type="string" name="GGA">--</i>
   <i type="int" name="VOSKOWN">     0</i>
   <i type="logical" name="LHFCALC"> F  </i>
   <i type="string" name="PRECFOCK"></i>
   <i type="logical" name="LSYMGRAD"> F  </i>
   <i type="logical" name="LHFONE"> F  </i>
   <i type="logical" name="LRHFCALC"> F  </i>
   <i type="logical" name="LTHOMAS"> F  </i>
   <i type="logical" name="LMODELHF"> F  </i>
   <i name="ENCUT4O">     -1.00000000</i>
   <i type="int" name="EXXOEP">     0</i>
   <i type="int" name="FOURORBIT">     0</i>
   <i name="AEXX">      0.00000000</i>
   <i name="HFALPHA">      0.00000000</i>
   <i name="MCALPHA">      0.00000000</i>
   <i name="ALDAX">      1.00000000</i>
   <i name="AGGAX">      1.00000000</i>
   <i name="ALDAC">      1.00000000</i>
   <i name="AGGAC">      1.00000000</i>
   <i type="int" name="NKREDX">     1</i>
   <i type="int" name="NKREDY">     1</i>
   <i type="int" name="NKREDZ">     1</i>
   <i type="logical" name="SHIFTRED"> F  </i>
   <i type="logical" name="ODDONLY"> F  </i>
   <i type="logical" name="EVENONLY"> F  </i>
   <i type="int" name="LMAXFOCK">     0</i>
   <i type="int" name="NMAXFOCKAE">     0</i>
   <i type="logical" name="LFOCKAEDFT"> F  </i>
   <i name="HFSCREEN">      0.00000000</i>
   <i name="HFSCREENC">      0.00000000</i>
   <i type="int" name="NBANDSGWLOW">     0</i>
  </separator>
  <separator name="vdW DFT" >
   <i type="logical" name="LUSE_VDW"> F  </i>
   <i name="Zab_VDW">     -0.84910000</i>
   <i name="PARAM1">      0.12340000</i>
   <i name="PARAM2">      1.00000000</i>
   <i name="PARAM3">      0.00000000</i>
  </separator>
  <separator name="model GW" >
   <i type="int" name="MODEL_GW">     0</i>
   <i name="MODEL_EPS0">     87.27272727</i>
   <i name="MODEL_ALPHA">      1.00000000</i>
  </separator>
  <separator name="linear response parameters" >
   <i type="logical" name="LEPSILON"> F  </i>
   <i type="logical" name="LRPA"> F  </i>
   <i type="logical" name="LNABLA"> F  </i>
   <i type="logical" name="LVEL"> F  </i>
   <i type="int" name="KINTER">     0</i>
   <i name="CSHIFT">      0.10000000</i>
   <i name="OMEGAMAX">     -1.00000000</i>
   <i name="DEG_THRESHOLD">      0.00200000</i>
  </separator>
  <separator name="orbital magnetization" >
   <i type="logical" name="NUCIND"> F  </i>
   <v name="MAGPOS">      0.00000000      0.00000000      0.00000000</v>
   <i type="logical" name="LNICSALL"> T  </i>
   <i type="logical" name="ORBITALMAG"> F  </i>
   <i type="logical" name="LMAGBLOCH"> F  </i>
   <i type="logical" name="LCHIMAG"> F  </i>
   <i type="logical" name="LGAUGE"> T  </i>
   <i type="int" name="MAGATOM">     0</i>
   <v name="MAGDIPOL">      0.00000000      0.00000000      0.00000000</v>
   <v name="AVECCONST">      0.00000000      0.00000000      0.00000000</v>
  </separator>
  <separator name="response functions" >
   <i type="logical" name="LADDER"> F  </i>
   <i type="logical" name="LFXC"> F  </i>
   <i type="logical" name="LHARTREE"> T  </i>
   <i type="int" name="IBSE">     0</i>
   <i type="logical" name="LTCTE"> F  </i>
   <i type="logical" name="LTETE"> F  </i>
   <i type="logical" name="LTRIPLET"> F  </i>
   <i type="logical" name="LFXCEPS"> F  </i>
   <i type="logical" name="LFXHEG"> F  </i>
   <i type="logical" name="L2ORDER"> F  </i>
   <i type="logical" name="LUSEW"> F  </i>
   <i name="ENCUTGW">     -2.00000000</i>
   <i name="ENCUTGWSOFT">     -2.00000000</i>
   <i name="ENCUTLF">     -1.00000000</i>
   <i type="int" name="LMAXMP2">    -1</i>
   <i name="SCISSOR">      0.00000000</i>
   <i type="int" name="NOMEGA">     0</i>
   <i type="int" name="NOMEGAR">     0</i>
   <i type="int" name="NBANDSGW">    -1</i>
   <i type="int" name="NBANDSO">    -1</i>
   <i type="int" name="NBANDSV">    -1</i>
   <i type="int" name="NELM">     1</i>
   <i type="int" name="DIM">     3</i>
   <i type="int" name="ANTIRES">     0</i>
   <i name="OMEGAMAX">    -30.00000000</i>
   <i name="OMEGAMIN">    -30.00000000</i>
   <i name="OMEGATL">   -200.00000000</i>
   <i type="int" name="OMEGAGRID">     0</i>
   <i name="CSHIFT">     -0.10000000</i>
   <i type="logical" name="SELFENERGY"> F  </i>
   <i type="logical" name="LSPECTRAL"> F  </i>
   <i type="logical" name="ODDONLYGW"> F  </i>
   <i type="logical" name="EVENONLYGW"> F  </i>
   <i type="int" name="NKREDLFX">     1</i>
   <i type="int" name="NKREDLFY">     1</i>
   <i type="int" name="NKREDLFZ">     1</i>
   <i type="int" name="MAXMEM">  1800</i>
   <i type="int" name="TELESCOPE">     0</i>
   <i type="int" name="TAUPAR">     1</i>
  </separator>
  <separator name="External order field" >
   <i name="OFIELD_KAPPA">      0.00000000</i>
   <v name="OFIELD_K">      0.00000000      0.00000000      0.00000000</v>
   <i name="OFIELD_Q6_NEAR">      0.00000000</i>
   <i name="OFIELD_Q6_FAR">      0.00000000</i>
   <i name="OFIELD_A">      0.00000000</i>
  </separator>
 </parameters>
 <atominfo>
  <atoms>      55 </atoms>
  <types>       6 </types>
  <array name="atoms" >
   <dimension dim="1">ion</dimension>
   <field type="string">element</field>
   <field type="int">atomtype</field>
   <set>
    <rc><c>C </c><c>   1</c></rc>
    <rc><c>C </c><c>   2</c></rc>
    <rc><c>C </c><c>   2</c></rc>
    <rc><c>C </c><c>   2</c></rc>
    <rc><c>C </c><c>   2</c></rc>
    <rc><c>C </c><c>   2</c></rc>
    <rc><c>C </c><c>   2</c></rc>
    <rc><c>C </c><c>   2</c></rc>
    <rc><c>C </c><c>   2</c></rc>
    <rc><c>C </c><c>   2</c></rc>
    <rc><c>C </c><c>   2</c></rc>
    <rc><c>C </c><c>   2</c></rc>
    <rc><c>C </c><c>   2</c></rc>
    <rc><c>C </c><c>   2</c></rc>
    <rc><c>C </c><c>   2</c></rc>
    <rc><c>C </c><c>   2</c></rc>
    <rc><c>C </c><c>   2</c></rc>
    <rc><c>C </c><c>   2</c></rc>
    <rc><c>C </c><c>   2</c></rc>
    <rc><c>C </c><c>   2</c></rc>
    <rc><c>C </c><c>   2</c></rc>
    <rc><c>C </c><c>   2</c></rc>
    <rc><c>C </c><c>   2</c></rc>
    <rc><c>C </c><c>   2</c></rc>
    <rc><c>C </c><c>   2</c></rc>
    <rc><c>H </c><c>   3</c></rc>
    <rc><c>H </c><c>   3</c></rc>
    <rc><c>H </c><c>   3</c></rc>
    <rc><c>H </c><c>   3</c></rc>
    <rc><c>H </c><c>   3</c></rc>
    <rc><c>H </c><c>   3</c></rc>
    <rc><c>H </c><c>   3</c></rc>
    <rc><c>H </c><c>   3</c></rc>
    <rc><c>H </c><c>   3</c></rc>
    <rc><c>H </c><c>   3</c></rc>
    <rc><c>H </c><c>   3</c></rc>
    <rc><c>H </c><c>   3</c></rc>
    <rc><c>H </c><c>   3</c></rc>
    <rc><c>H </c><c>   3</c></rc>
    <rc><c>H </c><c>   3</c></rc>
    <rc><c>H </c><c>   3</c></rc>
    <rc><c>H </c><c>   3</c></rc>
    <rc><c>H </c><c>   3</c></rc>
    <rc><c>H </c><c>   3</c></rc>
    <rc><c>H </c><c>   3</c></rc>
    <rc><c>H </c><c>   3</c></rc>
    <rc><c>H </c><c>   3</c></rc>
    <rc><c>H </c><c>   3</c></rc>
    <rc><c>N </c><c>   4</c></rc>
    <rc><c>N </c><c>   4</c></rc>
    <rc><c>N </c><c>   4</c></rc>
    <rc><c>N </c><c>   4</c></rc>
    <rc><c>N </c><c>   4</c></rc>
    <rc><c>O </c><c>   5</c></rc>
    <rc><c>Ru</c><c>   6</c></rc>
   </set>
  </array>
  <array name="atomtypes" >
   <dimension dim="1">type</dimension>
   <field type="int">atomspertype</field>
   <field type="string">element</field>
   <field>mass</field>
   <field>valence</field>
   <field type="string">pseudopotential</field>
   <set>
    <rc><c>   1</c><c>C </c><c>     12.01100000</c><c>      4.50000000</c><c>  PAW_PBE C_h 06Feb2004                 </c></rc>
    <rc><c>  24</c><c>C </c><c>     12.01100000</c><c>      4.00000000</c><c>  PAW_PBE C_h 06Feb2004                 </c></rc>
    <rc><c>  23</c><c>H </c><c>      1.00000000</c><c>      1.00000000</c><c>  PAW_PBE H 15Jun2001                   </c></rc>
    <rc><c>   5</c><c>N </c><c>     14.00100000</c><c>      5.00000000</c><c>  PAW_PBE N_h 06Feb2004                 </c></rc>
    <rc><c>   1</c><c>O </c><c>     16.00000000</c><c>      6.00000000</c><c>  PAW_PBE O_h 06Feb2004                 </c></rc>
    <rc><c>   1</c><c>Ru</c><c>    101.07000000</c><c>     14.00000000</c><c>  PAW_PBE Ru_pv 28Jan2005               </c></rc>
   </set>
  </array>
 </atominfo>
 <structure name="initialpos" >
  <crystal>
   <varray name="basis" >
    <v>      20.00000000       0.00000000       0.00000000 </v>
    <v>       0.00000000      20.00000000       0.00000000 </v>
    <v>       0.00000000       0.00000000      20.00000000 </v>
   </varray>
   <i name="volume">   8000.00000000 </i>
   <varray name="rec_basis" >
    <v>       0.05000000       0.00000000       0.00000000 </v>
    <v>       0.00000000       0.05000000       0.00000000 </v>
    <v>       0.00000000       0.00000000       0.05000000 </v>
   </varray>
  </crystal>
  <varray name="positions" >
   <v>       0.43793752       0.56561110       0.32757008 </v>
   <v>       0.29334713       0.47671938       0.56830116 </v>
   <v>       0.45581208       0.52423376       0.38051465 </v>
   <v>       0.47372925       0.61530131       0.44986522 </v>
   <v>       0.45595175       0.65963312       0.39935201 </v>
   <v>       0.43785737       0.63472201       0.33675972 </v>
   <v>       0.52307882       0.32955005       0.67474498 </v>
   <v>       0.49710163       0.37190466       0.62618823 </v>
   <v>       0.60227374       0.41933300       0.60593616 </v>
   <v>       0.63096398       0.37761922       0.65422416 </v>
   <v>       0.73964927       0.52855915       0.53463181 </v>
   <v>       0.70082162       0.56612858       0.49044049 </v>
   <v>       0.63257913       0.55363620       0.48652424 </v>
   <v>       0.63952130       0.46927713       0.56732841 </v>
   <v>       0.70843899       0.47974495       0.57314689 </v>
   <v>       0.59134754       0.33224398       0.68903016 </v>
   <v>       0.36211554       0.48866484       0.56417415 </v>
   <v>       0.40790931       0.62211625       0.69058213 </v>
   <v>       0.47619960       0.62606623       0.67660612 </v>
   <v>       0.50295190       0.58590820       0.62668073 </v>
   <v>       0.39825425       0.53800137       0.60426081 </v>
   <v>       0.36904589       0.57756069       0.65398228 </v>
   <v>       0.37289802       0.40579857       0.48223443 </v>
   <v>       0.30486503       0.39173492       0.48443166 </v>
   <v>       0.26422003       0.42785518       0.52821594 </v>
   <v>       0.48989745       0.29510618       0.70074864 </v>
   <v>       0.61334240       0.29968355       0.72673159 </v>
   <v>       0.68424189       0.38076917       0.66478776 </v>
   <v>       0.54225374       0.36233861       0.46129841 </v>
   <v>       0.31579090       0.57306911       0.66420366 </v>
   <v>       0.44416348       0.37118871       0.61364770 </v>
   <v>       0.42392665       0.66833230       0.29622671 </v>
   <v>       0.45642762       0.71313270       0.40950260 </v>
   <v>       0.48809132       0.63358802       0.49907234 </v>
   <v>       0.56912778       0.41808713       0.41480476 </v>
   <v>       0.73767440       0.44963919       0.60776512 </v>
   <v>       0.72277620       0.60481012       0.45904817 </v>
   <v>       0.45570253       0.47012894       0.37468790 </v>
   <v>       0.40614333       0.37888556       0.44852541 </v>
   <v>       0.28443799       0.35306162       0.45202062 </v>
   <v>       0.79326502       0.53703787       0.53892527 </v>
   <v>       0.55589708       0.58769132       0.61440612 </v>
   <v>       0.42412006       0.54328620       0.27986105 </v>
   <v>       0.50894741       0.65984570       0.70400156 </v>
   <v>       0.26265982       0.50568523       0.60265428 </v>
   <v>       0.21072272       0.41813760       0.53105039 </v>
   <v>       0.60090654       0.58197914       0.45254259 </v>
   <v>       0.38544357       0.65296704       0.72941133 </v>
   <v>       0.47424490       0.54794204       0.44140236 </v>
   <v>       0.40180479       0.45306079       0.52108436 </v>
   <v>       0.53520702       0.41608490       0.59173240 </v>
   <v>       0.46544808       0.54254992       0.59041194 </v>
   <v>       0.60138410       0.50650621       0.52397638 </v>
   <v>       0.53073984       0.40562607       0.44215451 </v>
   <v>       0.50088568       0.48087016       0.51934246 </v>
  </varray>
  <varray name="selective"  type="logical" >
   <v type="logical" >  T  T  T </v>
   <v type="logical" >  T  T  T </v>
   <v type="logical" >  T  T  T </v>
   <v type="logical" >  T  T  T </v>
   <v type="logical" >  T  T  T </v>
   <v type="logical" >  T  T  T </v>
   <v type="logical" >  T  T  T </v>
   <v type="logical" >  T  T  T </v>
   <v type="logical" >  T  T  T </v>
   <v type="logical" >  T  T  T </v>
   <v type="logical" >  T  T  T </v>
   <v type="logical" >  T  T  T </v>
   <v type="logical" >  T  T  T </v>
   <v type="logical" >  T  T  T </v>
   <v type="logical" >  T  T  T </v>
   <v type="logical" >  T  T  T </v>
   <v type="logical" >  T  T  T </v>
   <v type="logical" >  T  T  T </v>
   <v type="logical" >  T  T  T </v>
   <v type="logical" >  T  T  T </v>
   <v type="logical" >  T  T  T </v>
   <v type="logical" >  T  T  T </v>
   <v type="logical" >  T  T  T </v>
   <v type="logical" >  T  T  T </v>
   <v type="logical" >  T  T  T </v>
   <v type="logical" >  T  T  T </v>
   <v type="logical" >  T  T  T </v>
   <v type="logical" >  T  T  T </v>
   <v type="logical" >  T  T  T </v>
   <v type="logical" >  T  T  T </v>
   <v type="logical" >  T  T  T </v>
   <v type="logical" >  T  T  T </v>
   <v type="logical" >  T  T  T </v>
   <v type="logical" >  T  T  T </v>
   <v type="logical" >  T  T  T </v>
   <v type="logical" >  T  T  T </v>
   <v type="logical" >  T  T  T </v>
   <v type="logical" >  T  T  T </v>
   <v type="logical" >  T  T  T </v>
   <v type="logical" >  T  T  T </v>
   <v type="logical" >  T  T  T </v>
   <v type="logical" >  T  T  T </v>
   <v type="logical" >  T  T  T </v>
   <v type="logical" >  T  T  T </v>
   <v type="logical" >  T  T  T </v>
   <v type="logical" >  T  T  T </v>
   <v type="logical" >  T  T  T </v>
   <v type="logical" >  T  T  T </v>
   <v type="logical" >  T  T  T </v>
   <v type="logical" >  T  T  T </v>
   <v type="logical" >  T  T  T </v>
   <v type="logical" >  T  T  T </v>
   <v type="logical" >  T  T  T </v>
   <v type="logical" >  T  T  T </v>
   <v type="logical" >  T  T  T </v>
  </varray>
  <nose>
   <v>      -3.00000000       0.00000000       0.00010000       0.00010000 </v>
  </nose>
 </structure>
 <calculation>
  <scstep>
   <time name="dav">   14.77   15.72</time>
   <time name="total">   22.34   23.33</time>
   <energy>
    <i name="alphaZ">     12.91687988 </i>
    <i name="ewald">  23270.44412648 </i>
    <i name="hartreedc"> -28872.73846368 </i>
    <i name="XCdc">    400.93316391 </i>
    <i name="pawpsdc">   5890.45591622 </i>
    <i name="pawaedc">  -5710.10246236 </i>
    <i name="eentropy">     -0.00000046 </i>
    <i name="bandstr">  -1676.14482910 </i>
    <i name="atom">   7593.39991119 </i>
    <i name="e_fr_energy">    909.16424209 </i>
    <i name="e_wo_entrp">    909.16424255 </i>
    <i name="e_0_energy">    909.16424232 </i>
   </energy>
  </scstep>
  <scstep>
   <time name="dav">   18.97   20.26</time>
   <time name="total">   18.99   20.28</time>
   <energy>
    <i name="e_fr_energy">    -69.56257614 </i>
    <i name="e_wo_entrp">    -69.56257614 </i>
    <i name="e_0_energy">    -69.56257614 </i>
   </energy>
  </scstep>
  <scstep>
   <time name="dav">   14.93   15.85</time>
   <time name="total">   14.94   15.86</time>
   <energy>
    <i name="e_fr_energy">   -391.53783557 </i>
    <i name="e_wo_entrp">   -391.53783557 </i>
    <i name="e_0_energy">   -391.53783557 </i>
   </energy>
  </scstep>
  <scstep>
   <time name="dav">   13.76   14.60</time>
   <time name="total">   13.77   14.61</time>
   <energy>
    <i name="e_fr_energy">   -411.71158257 </i>
    <i name="e_wo_entrp">   -411.71158257 </i>
    <i name="e_0_energy">   -411.71158257 </i>
   </energy>
  </scstep>
  <scstep>
   <time name="dav">   15.97   16.95</time>
   <time name="total">   21.28   22.28</time>
   <energy>
    <i name="e_fr_energy">   -411.99160442 </i>
    <i name="e_wo_entrp">   -411.99160442 </i>
    <i name="e_0_energy">   -411.99160442 </i>
   </energy>
  </scstep>
  <scstep>
   <time name="dav">   11.82   12.53</time>
   <time name="total">   24.53   25.29</time>
   <energy>
    <i name="e_fr_energy">   -394.54271787 </i>
    <i name="e_wo_entrp">   -394.54271787 </i>
    <i name="e_0_energy">   -394.54271787 </i>
   </energy>
  </scstep>
  <scstep>
   <time name="dav">   14.05   15.26</time>
   <time name="total">   26.71   27.96</time>
   <energy>
    <i name="e_fr_energy">   -383.41449554 </i>
    <i name="e_wo_entrp">   -383.41449554 </i>
    <i name="e_0_energy">   -383.41449554 </i>
   </energy>
  </scstep>
  <scstep>
   <time name="dav">   15.16   16.44</time>
   <time name="total">   28.04   29.35</time>
   <energy>
    <i name="e_fr_energy">   -378.98179792 </i>
    <i name="e_wo_entrp">   -378.98179792 </i>
    <i name="e_0_energy">   -378.98179792 </i>
   </energy>
  </scstep>
  <scstep>
   <time name="dav">   15.02   16.32</time>
   <time name="total">   27.78   29.10</time>
   <energy>
    <i name="e_fr_energy">   -377.74605047 </i>
    <i name="e_wo_entrp">   -377.74605047 </i>
    <i name="e_0_energy">   -377.74605047 </i>
   </energy>
  </scstep>
  <scstep>
   <time name="dav">   15.18   16.48</time>
   <time name="total">   28.07   29.43</time>
   <energy>
    <i name="e_fr_energy">   -377.68075330 </i>
    <i name="e_wo_entrp">   -377.68075330 </i>
    <i name="e_0_energy">   -377.68075330 </i>
   </energy>
  </scstep>
  <scstep>
   <time name="dav">   15.04   16.33</time>
   <time name="total">   27.84   29.15</time>
   <energy>
    <i name="e_fr_energy">   -377.57000991 </i>
    <i name="e_wo_entrp">   -377.57000991 </i>
    <i name="e_0_energy">   -377.57000991 </i>
   </energy>
  </scstep>
  <scstep>
   <time name="dav">   15.06   16.32</time>
   <time name="total">   27.93   29.22</time>
   <energy>
    <i name="e_fr_energy">   -377.48510823 </i>
    <i name="e_wo_entrp">   -377.48510823 </i>
    <i name="e_0_energy">   -377.48510823 </i>
   </energy>
  </scstep>
  <scstep>
   <time name="dav">   15.04   16.34</time>
   <time name="total">   27.87   29.20</time>
   <energy>
    <i name="e_fr_energy">   -377.45707525 </i>
    <i name="e_wo_entrp">   -377.45707525 </i>
    <i name="e_0_energy">   -377.45707525 </i>
   </energy>
  </scstep>
  <scstep>
   <time name="dav">   15.12   16.42</time>
   <time name="total">   28.15   29.48</time>
   <energy>
    <i name="e_fr_energy">   -377.44031294 </i>
    <i name="e_wo_entrp">   -377.44031294 </i>
    <i name="e_0_energy">   -377.44031294 </i>
   </energy>
  </scstep>
  <scstep>
   <time name="dav">   15.01   16.29</time>
   <time name="total">   27.87   29.19</time>
   <energy>
    <i name="e_fr_energy">   -377.44331778 </i>
    <i name="e_wo_entrp">   -377.44331778 </i>
    <i name="e_0_energy">   -377.44331778 </i>
   </energy>
  </scstep>
  <scstep>
   <time name="dav">   15.01   16.31</time>
   <time name="total">   27.87   29.21</time>
   <energy>
    <i name="e_fr_energy">   -377.45278962 </i>
    <i name="e_wo_entrp">   -377.45278962 </i>
    <i name="e_0_energy">   -377.45278962 </i>
   </energy>
  </scstep>
  <scstep>
   <time name="dav">   15.03   16.31</time>
   <time name="total">   27.90   29.25</time>
   <energy>
    <i name="e_fr_energy">   -377.45910169 </i>
    <i name="e_wo_entrp">   -377.45910169 </i>
    <i name="e_0_energy">   -377.45910169 </i>
   </energy>
  </scstep>
  <scstep>
   <time name="dav">   15.02   16.31</time>
   <time name="total">   27.91   29.30</time>
   <energy>
    <i name="e_fr_energy">   -377.46327057 </i>
    <i name="e_wo_entrp">   -377.46327057 </i>
    <i name="e_0_energy">   -377.46327057 </i>
   </energy>
  </scstep>
  <scstep>
   <time name="dav">   15.02   16.30</time>
   <time name="total">   27.93   29.29</time>
   <energy>
    <i name="e_fr_energy">   -377.46799240 </i>
    <i name="e_wo_entrp">   -377.46799240 </i>
    <i name="e_0_energy">   -377.46799240 </i>
   </energy>
  </scstep>
  <scstep>
   <time name="dav">   15.05   16.48</time>
   <time name="total">   27.88   29.35</time>
   <energy>
    <i name="e_fr_energy">   -377.47045251 </i>
    <i name="e_wo_entrp">   -377.47045251 </i>
    <i name="e_0_energy">   -377.47045251 </i>
   </energy>
  </scstep>
  <scstep>
   <time name="dav">   15.03   16.33</time>
   <time name="total">   28.07   29.43</time>
   <energy>
    <i name="e_fr_energy">   -377.47212463 </i>
    <i name="e_wo_entrp">   -377.47212463 </i>
    <i name="e_0_energy">   -377.47212463 </i>
   </energy>
  </scstep>
  <scstep>
   <time name="dav">   15.13   16.50</time>
   <time name="total">   28.04   29.44</time>
   <energy>
    <i name="e_fr_energy">   -377.47339584 </i>
    <i name="e_wo_entrp">   -377.47339584 </i>
    <i name="e_0_energy">   -377.47339584 </i>
   </energy>
  </scstep>
  <scstep>
   <time name="dav">   13.06   14.26</time>
   <time name="total">   26.08   27.30</time>
   <energy>
    <i name="e_fr_energy">   -377.47394911 </i>
    <i name="e_wo_entrp">   -377.47394911 </i>
    <i name="e_0_energy">   -377.47394911 </i>
   </energy>
  </scstep>
  <scstep>
   <time name="dav">   13.24   14.43</time>
   <time name="total">   26.10   27.33</time>
   <energy>
    <i name="e_fr_energy">   -377.47442875 </i>
    <i name="e_wo_entrp">   -377.47442875 </i>
    <i name="e_0_energy">   -377.47442875 </i>
   </energy>
  </scstep>
  <scstep>
   <time name="dav">   13.12   14.30</time>
   <time name="total">   26.11   27.34</time>
   <energy>
    <i name="e_fr_energy">   -377.47463844 </i>
    <i name="e_wo_entrp">   -377.47463844 </i>
    <i name="e_0_energy">   -377.47463844 </i>
   </energy>
  </scstep>
  <scstep>
   <time name="dav">   13.23   14.45</time>
   <time name="total">   26.18   27.42</time>
   <energy>
    <i name="e_fr_energy">   -377.47479517 </i>
    <i name="e_wo_entrp">   -377.47479517 </i>
    <i name="e_0_energy">   -377.47479517 </i>
   </energy>
  </scstep>
  <scstep>
   <time name="dav">   13.23   14.43</time>
   <time name="total">   26.13   27.36</time>
   <energy>
    <i name="e_fr_energy">   -377.47487571 </i>
    <i name="e_wo_entrp">   -377.47487571 </i>
    <i name="e_0_energy">   -377.47487571 </i>
   </energy>
  </scstep>
  <scstep>
   <time name="dav">   13.22   14.40</time>
   <time name="total">   26.08   27.42</time>
   <energy>
    <i name="e_fr_energy">   -377.47492301 </i>
    <i name="e_wo_entrp">   -377.47492301 </i>
    <i name="e_0_energy">   -377.47492301 </i>
   </energy>
  </scstep>
  <scstep>
   <time name="dav">   13.15   14.40</time>
   <time name="total">   26.11   27.40</time>
   <energy>
    <i name="e_fr_energy">   -377.47494277 </i>
    <i name="e_wo_entrp">   -377.47494277 </i>
    <i name="e_0_energy">   -377.47494277 </i>
   </energy>
  </scstep>
  <scstep>
   <time name="dav">   13.10   14.28</time>
   <time name="total">   26.17   27.38</time>
   <energy>
    <i name="e_fr_energy">   -377.47495476 </i>
    <i name="e_wo_entrp">   -377.47495476 </i>
    <i name="e_0_energy">   -377.47495476 </i>
   </energy>
  </scstep>
  <scstep>
   <time name="dav">   13.10   14.27</time>
   <time name="total">   20.68   21.99</time>
   <energy>
    <i name="alphaZ">     12.91687988 </i>
    <i name="ewald">  23270.44412648 </i>
    <i name="hartreedc"> -29118.99823752 </i>
    <i name="XCdc">    424.30934137 </i>
    <i name="pawpsdc">  81138.73577750 </i>
    <i name="pawaedc"> -80965.44969855 </i>
    <i name="eentropy">     -0.00000000 </i>
    <i name="bandstr">  -2732.83306239 </i>
    <i name="atom">   7593.39991119 </i>
    <i name="e_fr_energy">   -377.47496205 </i>
    <i name="e_wo_entrp">   -377.47496205 </i>
    <i name="e_0_energy">   -377.47496205 </i>
   </energy>
  </scstep>
  <structure>
   <crystal>
    <varray name="basis" >
     <v>      20.00000000       0.00000000       0.00000000 </v>
     <v>       0.00000000      20.00000000       0.00000000 </v>
     <v>       0.00000000       0.00000000      20.00000000 </v>
    </varray>
    <i name="volume">   8000.00000000 </i>
    <varray name="rec_basis" >
     <v>       0.05000000       0.00000000       0.00000000 </v>
     <v>       0.00000000       0.05000000       0.00000000 </v>
     <v>       0.00000000       0.00000000       0.05000000 </v>
    </varray>
   </crystal>
   <varray name="positions" >
    <v>       0.43793752       0.56561110       0.32757008 </v>
    <v>       0.29334713       0.47671938       0.56830116 </v>
    <v>       0.45581208       0.52423376       0.38051465 </v>
    <v>       0.47372925       0.61530131       0.44986522 </v>
    <v>       0.45595175       0.65963312       0.39935201 </v>
    <v>       0.43785737       0.63472201       0.33675972 </v>
    <v>       0.52307882       0.32955005       0.67474498 </v>
    <v>       0.49710163       0.37190466       0.62618823 </v>
    <v>       0.60227374       0.41933300       0.60593616 </v>
    <v>       0.63096398       0.37761922       0.65422416 </v>
    <v>       0.73964927       0.52855915       0.53463181 </v>
    <v>       0.70082162       0.56612858       0.49044049 </v>
    <v>       0.63257913       0.55363620       0.48652424 </v>
    <v>       0.63952130       0.46927713       0.56732841 </v>
    <v>       0.70843899       0.47974495       0.57314689 </v>
    <v>       0.59134754       0.33224398       0.68903016 </v>
    <v>       0.36211554       0.48866484       0.56417415 </v>
    <v>       0.40790931       0.62211625       0.69058213 </v>
    <v>       0.47619960       0.62606623       0.67660612 </v>
    <v>       0.50295190       0.58590820       0.62668073 </v>
    <v>       0.39825425       0.53800137       0.60426081 </v>
    <v>       0.36904589       0.57756069       0.65398228 </v>
    <v>       0.37289802       0.40579857       0.48223443 </v>
    <v>       0.30486503       0.39173492       0.48443166 </v>
    <v>       0.26422003       0.42785518       0.52821594 </v>
    <v>       0.48989745       0.29510618       0.70074864 </v>
    <v>       0.61334240       0.29968355       0.72673159 </v>
    <v>       0.68424189       0.38076917       0.66478776 </v>
    <v>       0.54225374       0.36233861       0.46129841 </v>
    <v>       0.31579090       0.57306911       0.66420366 </v>
    <v>       0.44416348       0.37118871       0.61364770 </v>
    <v>       0.42392665       0.66833230       0.29622671 </v>
    <v>       0.45642762       0.71313270       0.40950260 </v>
    <v>       0.48809132       0.63358802       0.49907234 </v>
    <v>       0.56912778       0.41808713       0.41480476 </v>
    <v>       0.73767440       0.44963919       0.60776512 </v>
    <v>       0.72277620       0.60481012       0.45904817 </v>
    <v>       0.45570253       0.47012894       0.37468790 </v>
    <v>       0.40614333       0.37888556       0.44852541 </v>
    <v>       0.28443799       0.35306162       0.45202062 </v>
    <v>       0.79326502       0.53703787       0.53892527 </v>
    <v>       0.55589708       0.58769132       0.61440612 </v>
    <v>       0.42412006       0.54328620       0.27986105 </v>
    <v>       0.50894741       0.65984570       0.70400156 </v>
    <v>       0.26265982       0.50568523       0.60265428 </v>
    <v>       0.21072272       0.41813760       0.53105039 </v>
    <v>       0.60090654       0.58197914       0.45254259 </v>
    <v>       0.38544357       0.65296704       0.72941133 </v>
    <v>       0.47424490       0.54794204       0.44140236 </v>
    <v>       0.40180479       0.45306079       0.52108436 </v>
    <v>       0.53520702       0.41608490       0.59173240 </v>
    <v>       0.46544808       0.54254992       0.59041194 </v>
    <v>       0.60138410       0.50650621       0.52397638 </v>
    <v>       0.53073984       0.40562607       0.44215451 </v>
    <v>       0.50088568       0.48087016       0.51934246 </v>
   </varray>
  </structure>
  <varray name="forces" >
   <v>       0.09874669      -0.00971933       0.32416323 </v>
   <v>       0.00905473       0.01882622       0.00930108 </v>
   <v>      -0.24297591       0.67352335      -0.59204389 </v>
   <v>      -0.07209314       0.15788420      -0.15006769 </v>
   <v>       0.00489347      -0.10600087       0.02276244 </v>
   <v>      -0.00056056      -0.81033148      -0.09584197 </v>
   <v>       0.01922451      -0.00662909       0.00921874 </v>
   <v>      -0.03524010       0.02800628      -0.04631182 </v>
   <v>      -0.00822446       0.01788832      -0.01210810 </v>
   <v>      -0.00055043       0.01622753      -0.01709715 </v>
   <v>      -0.01172036      -0.00199512      -0.00308394 </v>
   <v>      -0.00630142       0.02425132      -0.02392913 </v>
   <v>       0.00519605      -0.04939803       0.05207640 </v>
   <v>      -0.01761588       0.01178285      -0.00722732 </v>
   <v>       0.00084383       0.00509052      -0.00166823 </v>
   <v>      -0.02846101      -0.00190621      -0.00431655 </v>
   <v>      -0.00435580      -0.03291465      -0.00667784 </v>
   <v>       0.02336273       0.00230477      -0.00251689 </v>
   <v>      -0.01181778       0.02011136       0.01868167 </v>
   <v>       0.01098098      -0.01279057      -0.02134113 </v>
   <v>       0.02401731       0.01282137       0.02137446 </v>
   <v>      -0.01751611      -0.01245224      -0.01264915 </v>
   <v>       0.01527195       0.02290404      -0.00060548 </v>
   <v>      -0.03132986      -0.00779369      -0.01208619 </v>
   <v>       0.01197025      -0.01738209      -0.01444942 </v>
   <v>      -0.00342100      -0.00169312      -0.00041288 </v>
   <v>       0.00168539      -0.00344299       0.00405012 </v>
   <v>      -0.00205079       0.00061400       0.00030676 </v>
   <v>       0.00118627      -0.03817919      -0.00677695 </v>
   <v>      -0.00187364       0.00483850       0.00400647 </v>
   <v>      -0.00172020      -0.01138077       0.00881131 </v>
   <v>      -0.01921962      -0.15627498      -0.09207381 </v>
   <v>      -0.02134113      -0.00530822      -0.08266678 </v>
   <v>       0.00320820      -0.00877377       0.00756166 </v>
   <v>       0.05442040      -0.05200424       0.03071870 </v>
   <v>       0.00559152       0.00224662       0.00000608 </v>
   <v>       0.01013397       0.00242437      -0.00133141 </v>
   <v>      -0.05127679       0.05016216      -0.15277513 </v>
   <v>       0.00662969      -0.03469597       0.00842007 </v>
   <v>      -0.00440640      -0.01175120       0.00328365 </v>
   <v>      -0.00030841       0.00467270      -0.00028070 </v>
   <v>       0.01395592      -0.00361608       0.01112916 </v>
   <v>       0.28275646       0.50488556       1.01036730 </v>
   <v>       0.00297636       0.00200662       0.00183068 </v>
   <v>      -0.00472489      -0.00486080       0.00093268 </v>
   <v>      -0.00578967      -0.00543256       0.00140309 </v>
   <v>       0.03940332       0.01131497      -0.00704621 </v>
   <v>      -0.00288067       0.00485162       0.00686682 </v>
   <v>      -0.04167312      -0.29214298      -0.13723952 </v>
   <v>      -0.13507604      -0.04888670       0.01469549 </v>
   <v>      -0.00768850      -0.00914776       0.04163137 </v>
   <v>      -0.02202202       0.09054848       0.06711381 </v>
   <v>       0.09396630      -0.00470339       0.02430837 </v>
   <v>      -0.01876133       0.07799887      -0.03820765 </v>
   <v>       0.09352079      -0.00657847      -0.16218868 </v>
  </varray>
  <varray name="stress" >
   <v>      -2.55011479       0.06696871      -0.20011444 </v>
   <v>       0.06696870      -3.05904112       0.01231130 </v>
   <v>      -0.20011442       0.01231132      -3.17018562 </v>
  </varray>
  <energy>
   <i name="e_fr_energy">   -377.47496205 </i>
   <i name="e_wo_entrp">   -377.47496205 </i>
   <i name="e_0_energy">     -0.00000000 </i>
  </energy>
  <time name="totalsc"> 1037.84 1078.64</time>
  <eigenvalues>
   <array>
    <dimension dim="1">band</dimension>
    <dimension dim="2">kpoint</dimension>
    <dimension dim="3">spin</dimension>
    <field>eigene</field>
    <field>occ</field>
    <set>
     <set comment="spin 1">
      <set comment="kpoint 1">
       <r>  -48.9366    1.0000 </r>
       <r>  -48.8215    1.0000 </r>
       <r>  -48.5789    1.0000 </r>
       <r>  -29.1755    1.0000 </r>
       <r>  -27.3097    1.0000 </r>
       <r>  -26.8426    1.0000 </r>
       <r>  -26.7061    1.0000 </r>
       <r>  -26.1058    1.0000 </r>
       <r>  -26.0494    1.0000 </r>
       <r>  -24.0151    1.0000 </r>
       <r>  -22.5002    1.0000 </r>
       <r>  -22.4010    1.0000 </r>
       <r>  -22.3358    1.0000 </r>
       <r>  -22.2719    1.0000 </r>
       <r>  -22.2280    1.0000 </r>
       <r>  -22.1551    1.0000 </r>
       <r>  -22.1198    1.0000 </r>
       <r>  -20.7509    1.0000 </r>
       <r>  -20.7180    1.0000 </r>
       <r>  -19.2897    1.0000 </r>
       <r>  -19.1061    1.0000 </r>
       <r>  -18.6844    1.0000 </r>
       <r>  -18.6346    1.0000 </r>
       <r>  -18.4020    1.0000 </r>
       <r>  -18.3694    1.0000 </r>
       <r>  -17.5674    1.0000 </r>
       <r>  -17.5317    1.0000 </r>
       <r>  -17.2581    1.0000 </r>
       <r>  -17.2208    1.0000 </r>
       <r>  -16.8906    1.0000 </r>
       <r>  -16.5916    1.0000 </r>
       <r>  -15.8951    1.0000 </r>
       <r>  -15.6818    1.0000 </r>
       <r>  -15.5855    1.0000 </r>
       <r>  -14.9518    1.0000 </r>
       <r>  -14.7175    1.0000 </r>
       <r>  -14.6861    1.0000 </r>
       <r>  -14.6647    1.0000 </r>
       <r>  -14.5958    1.0000 </r>
       <r>  -14.1024    1.0000 </r>
       <r>  -13.9599    1.0000 </r>
       <r>  -13.9131    1.0000 </r>
       <r>  -13.7858    1.0000 </r>
       <r>  -13.7562    1.0000 </r>
       <r>  -13.7156    1.0000 </r>
       <r>  -13.6372    1.0000 </r>
       <r>  -13.4970    1.0000 </r>
       <r>  -13.3435    1.0000 </r>
       <r>  -13.1864    1.0000 </r>
       <r>  -13.0839    1.0000 </r>
       <r>  -12.9589    1.0000 </r>
       <r>  -12.8419    1.0000 </r>
       <r>  -12.7339    1.0000 </r>
       <r>  -12.7113    1.0000 </r>
       <r>  -12.5095    1.0000 </r>
       <r>  -12.4038    1.0000 </r>
       <r>  -12.3397    1.0000 </r>
       <r>  -12.1837    1.0000 </r>
       <r>  -12.1036    1.0000 </r>
       <r>  -12.0273    1.0000 </r>
       <r>  -11.4494    1.0000 </r>
       <r>  -11.2995    1.0000 </r>
       <r>  -11.1982    1.0000 </r>
       <r>  -11.1065    1.0000 </r>
       <r>  -11.0436    1.0000 </r>
       <r>  -11.0300    1.0000 </r>
       <r>  -10.9896    1.0000 </r>
       <r>  -10.6184    1.0000 </r>
       <r>  -10.3780    1.0000 </r>
       <r>  -10.0959    1.0000 </r>
       <r>  -10.0878    1.0000 </r>
       <r>   -9.8867    1.0000 </r>
       <r>   -9.7863    1.0000 </r>
       <r>   -9.7551    1.0000 </r>
       <r>   -9.7066    1.0000 </r>
       <r>   -9.6660    1.0000 </r>
       <r>   -9.6272    1.0000 </r>
       <r>   -9.4482    1.0000 </r>
       <r>   -8.3488    1.0000 </r>
       <r>   -8.3034    1.0000 </r>
       <r>   -7.3053    1.0000 </r>
       <r>   -7.1419    1.0000 </r>
       <r>   -7.0030    1.0000 </r>
       <r>   -5.3052    0.0000 </r>
       <r>   -5.0024    0.0000 </r>
       <r>   -4.9440    0.0000 </r>
       <r>   -4.8320    0.0000 </r>
       <r>   -4.2105    0.0000 </r>
       <r>   -4.0293    0.0000 </r>
       <r>   -3.9336    0.0000 </r>
       <r>   -3.8813    0.0000 </r>
       <r>   -3.7307    0.0000 </r>
       <r>   -3.0867    0.0000 </r>
       <r>   -2.8488    0.0000 </r>
       <r>   -2.7255    0.0000 </r>
       <r>   -2.6257    0.0000 </r>
       <r>   -1.9542    0.0000 </r>
       <r>   -1.6602    0.0000 </r>
       <r>   -1.6486    0.0000 </r>
       <r>   -1.4049    0.0000 </r>
       <r>   -1.2269    0.0000 </r>
       <r>   -1.1831    0.0000 </r>
       <r>   -1.1528    0.0000 </r>
       <r>   -0.9873    0.0000 </r>
       <r>   -0.8684    0.0000 </r>
       <r>   -0.7990    0.0000 </r>
       <r>   -0.7456    0.0000 </r>
       <r>   -0.6695    0.0000 </r>
       <r>   -0.5388    0.0000 </r>
       <r>   -0.4204    0.0000 </r>
       <r>   -0.3897    0.0000 </r>
       <r>   -0.3416    0.0000 </r>
       <r>   -0.3327    0.0000 </r>
       <r>   -0.1580    0.0000 </r>
       <r>   -0.1347    0.0000 </r>
       <r>   -0.0564    0.0000 </r>
       <r>    0.0343    0.0000 </r>
       <r>    0.1048    0.0000 </r>
       <r>    0.2537    0.0000 </r>
       <r>    0.3391    0.0000 </r>
       <r>    0.3534    0.0000 </r>
       <r>    0.4446    0.0000 </r>
       <r>    0.4873    0.0000 </r>
       <r>    0.5697    0.0000 </r>
       <r>    0.6095    0.0000 </r>
       <r>    0.6541    0.0000 </r>
       <r>    0.7013    0.0000 </r>
       <r>    0.7374    0.0000 </r>
      </set>
     </set>
     <set comment="spin 2">
      <set comment="kpoint 1">
       <r>  -48.9366    1.0000 </r>
       <r>  -48.8215    1.0000 </r>
       <r>  -48.5789    1.0000 </r>
       <r>  -29.1755    1.0000 </r>
       <r>  -27.3097    1.0000 </r>
       <r>  -26.8426    1.0000 </r>
       <r>  -26.7061    1.0000 </r>
       <r>  -26.1058    1.0000 </r>
       <r>  -26.0494    1.0000 </r>
       <r>  -24.0151    1.0000 </r>
       <r>  -22.5002    1.0000 </r>
       <r>  -22.4010    1.0000 </r>
       <r>  -22.3358    1.0000 </r>
       <r>  -22.2719    1.0000 </r>
       <r>  -22.2280    1.0000 </r>
       <r>  -22.1551    1.0000 </r>
       <r>  -22.1198    1.0000 </r>
       <r>  -20.7509    1.0000 </r>
       <r>  -20.7180    1.0000 </r>
       <r>  -19.2897    1.0000 </r>
       <r>  -19.1061    1.0000 </r>
       <r>  -18.6844    1.0000 </r>
       <r>  -18.6346    1.0000 </r>
       <r>  -18.4020    1.0000 </r>
       <r>  -18.3694    1.0000 </r>
       <r>  -17.5674    1.0000 </r>
       <r>  -17.5317    1.0000 </r>
       <r>  -17.2581    1.0000 </r>
       <r>  -17.2208    1.0000 </r>
       <r>  -16.8906    1.0000 </r>
       <r>  -16.5916    1.0000 </r>
       <r>  -15.8951    1.0000 </r>
       <r>  -15.6818    1.0000 </r>
       <r>  -15.5855    1.0000 </r>
       <r>  -14.9518    1.0000 </r>
       <r>  -14.7175    1.0000 </r>
       <r>  -14.6861    1.0000 </r>
       <r>  -14.6647    1.0000 </r>
       <r>  -14.5958    1.0000 </r>
       <r>  -14.1024    1.0000 </r>
       <r>  -13.9599    1.0000 </r>
       <r>  -13.9131    1.0000 </r>
       <r>  -13.7858    1.0000 </r>
       <r>  -13.7562    1.0000 </r>
       <r>  -13.7156    1.0000 </r>
       <r>  -13.6372    1.0000 </r>
       <r>  -13.4970    1.0000 </r>
       <r>  -13.3435    1.0000 </r>
       <r>  -13.1864    1.0000 </r>
       <r>  -13.0839    1.0000 </r>
       <r>  -12.9589    1.0000 </r>
       <r>  -12.8419    1.0000 </r>
       <r>  -12.7339    1.0000 </r>
       <r>  -12.7113    1.0000 </r>
       <r>  -12.5095    1.0000 </r>
       <r>  -12.4038    1.0000 </r>
       <r>  -12.3397    1.0000 </r>
       <r>  -12.1837    1.0000 </r>
       <r>  -12.1036    1.0000 </r>
       <r>  -12.0273    1.0000 </r>
       <r>  -11.4494    1.0000 </r>
       <r>  -11.2995    1.0000 </r>
       <r>  -11.1982    1.0000 </r>
       <r>  -11.1065    1.0000 </r>
       <r>  -11.0436    1.0000 </r>
       <r>  -11.0300    1.0000 </r>
       <r>  -10.9896    1.0000 </r>
       <r>  -10.6184    1.0000 </r>
       <r>  -10.3780    1.0000 </r>
       <r>  -10.0959    1.0000 </r>
       <r>  -10.0878    1.0000 </r>
       <r>   -9.8867    1.0000 </r>
       <r>   -9.7863    1.0000 </r>
       <r>   -9.7551    1.0000 </r>
       <r>   -9.7066    1.0000 </r>
       <r>   -9.6660    1.0000 </r>
       <r>   -9.6272    1.0000 </r>
       <r>   -9.4482    1.0000 </r>
       <r>   -8.3488    1.0000 </r>
       <r>   -8.3034    1.0000 </r>
       <r>   -7.3053    1.0000 </r>
       <r>   -7.1419    1.0000 </r>
       <r>   -7.0030    1.0000 </r>
       <r>   -5.3052    0.0000 </r>
       <r>   -5.0024    0.0000 </r>
       <r>   -4.9440    0.0000 </r>
       <r>   -4.8320    0.0000 </r>
       <r>   -4.2105    0.0000 </r>
       <r>   -4.0293    0.0000 </r>
       <r>   -3.9336    0.0000 </r>
       <r>   -3.8813    0.0000 </r>
       <r>   -3.7307    0.0000 </r>
       <r>   -3.0867    0.0000 </r>
       <r>   -2.8488    0.0000 </r>
       <r>   -2.7255    0.0000 </r>
       <r>   -2.6257    0.0000 </r>
       <r>   -1.9542    0.0000 </r>
       <r>   -1.6602    0.0000 </r>
       <r>   -1.6486    0.0000 </r>
       <r>   -1.4049    0.0000 </r>
       <r>   -1.2269    0.0000 </r>
       <r>   -1.1831    0.0000 </r>
       <r>   -1.1528    0.0000 </r>
       <r>   -0.9873    0.0000 </r>
       <r>   -0.8684    0.0000 </r>
       <r>   -0.7990    0.0000 </r>
       <r>   -0.7456    0.0000 </r>
       <r>   -0.6695    0.0000 </r>
       <r>   -0.5388    0.0000 </r>
       <r>   -0.4204    0.0000 </r>
       <r>   -0.3897    0.0000 </r>
       <r>   -0.3416    0.0000 </r>
       <r>   -0.3327    0.0000 </r>
       <r>   -0.1580    0.0000 </r>
       <r>   -0.1347    0.0000 </r>
       <r>   -0.0564    0.0000 </r>
       <r>    0.0343    0.0000 </r>
       <r>    0.1048    0.0000 </r>
       <r>    0.2537    0.0000 </r>
       <r>    0.3391    0.0000 </r>
       <r>    0.3534    0.0000 </r>
       <r>    0.4446    0.0000 </r>
       <r>    0.4873    0.0000 </r>
       <r>    0.5697    0.0000 </r>
       <r>    0.6095    0.0000 </r>
       <r>    0.6541    0.0000 </r>
       <r>    0.7013    0.0000 </r>
       <r>    0.7367    0.0000 </r>
      </set>
     </set>
    </set>
   </array>
  </eigenvalues>
  <separator name="orbital magnetization" >
   <v name="MAGDIPOLOUT">      0.00000000      0.00000000      0.00000000</v>
  </separator>
  <dos>
   <i name="efermi">     -6.93311789 </i>
   <total>
    <array>
     <dimension dim="1">gridpoints</dimension>
     <dimension dim="2">spin</dimension>
     <field>energy</field>
     <field>total</field>
     <field>integrated</field>
     <set>
      <set comment="spin 1">
       <r>   -51.4202     0.0000     0.0000 </r>
       <r>   -51.2381     0.0000     0.0000 </r>
       <r>   -51.0560     0.0000     0.0000 </r>
       <r>   -50.8738     0.0000     0.0000 </r>
       <r>   -50.6917     0.0000     0.0000 </r>
       <r>   -50.5096     0.0000     0.0000 </r>
       <r>   -50.3274     0.0000     0.0000 </r>
       <r>   -50.1453     0.0000     0.0000 </r>
       <r>   -49.9631     0.0000     0.0000 </r>
       <r>   -49.7810     0.0000     0.0000 </r>
       <r>   -49.5989     0.0000     0.0000 </r>
       <r>   -49.4167     0.0000     0.0000 </r>
       <r>   -49.2346     0.0000     0.0000 </r>
       <r>   -49.0525     0.0000     0.0000 </r>
       <r>   -48.8703    10.9807     2.0000 </r>
       <r>   -48.6882     0.0000     4.0000 </r>
       <r>   -48.5060    10.9807     6.0000 </r>
       <r>   -48.3239     0.0000     6.0000 </r>
       <r>   -48.1418     0.0000     6.0000 </r>
       <r>   -47.9596     0.0000     6.0000 </r>
       <r>   -47.7775     0.0000     6.0000 </r>
       <r>   -47.5954     0.0000     6.0000 </r>
       <r>   -47.4132     0.0000     6.0000 </r>
       <r>   -47.2311     0.0000     6.0000 </r>
       <r>   -47.0489     0.0000     6.0000 </r>
       <r>   -46.8668     0.0000     6.0000 </r>
       <r>   -46.6847     0.0000     6.0000 </r>
       <r>   -46.5025     0.0000     6.0000 </r>
       <r>   -46.3204     0.0000     6.0000 </r>
       <r>   -46.1383     0.0000     6.0000 </r>
       <r>   -45.9561     0.0000     6.0000 </r>
       <r>   -45.7740     0.0000     6.0000 </r>
       <r>   -45.5918     0.0000     6.0000 </r>
       <r>   -45.4097     0.0000     6.0000 </r>
       <r>   -45.2276     0.0000     6.0000 </r>
       <r>   -45.0454     0.0000     6.0000 </r>
       <r>   -44.8633     0.0000     6.0000 </r>
       <r>   -44.6812     0.0000     6.0000 </r>
       <r>   -44.4990     0.0000     6.0000 </r>
       <r>   -44.3169     0.0000     6.0000 </r>
       <r>   -44.1347     0.0000     6.0000 </r>
       <r>   -43.9526     0.0000     6.0000 </r>
       <r>   -43.7705     0.0000     6.0000 </r>
       <r>   -43.5883     0.0000     6.0000 </r>
       <r>   -43.4062     0.0000     6.0000 </r>
       <r>   -43.2241     0.0000     6.0000 </r>
       <r>   -43.0419     0.0000     6.0000 </r>
       <r>   -42.8598     0.0000     6.0000 </r>
       <r>   -42.6776     0.0000     6.0000 </r>
       <r>   -42.4955     0.0000     6.0000 </r>
       <r>   -42.3134     0.0000     6.0000 </r>
       <r>   -42.1312     0.0000     6.0000 </r>
       <r>   -41.9491     0.0000     6.0000 </r>
       <r>   -41.7670     0.0000     6.0000 </r>
       <r>   -41.5848     0.0000     6.0000 </r>
       <r>   -41.4027     0.0000     6.0000 </r>
       <r>   -41.2205     0.0000     6.0000 </r>
       <r>   -41.0384     0.0000     6.0000 </r>
       <r>   -40.8563     0.0000     6.0000 </r>
       <r>   -40.6741     0.0000     6.0000 </r>
       <r>   -40.4920     0.0000     6.0000 </r>
       <r>   -40.3099     0.0000     6.0000 </r>
       <r>   -40.1277     0.0000     6.0000 </r>
       <r>   -39.9456     0.0000     6.0000 </r>
       <r>   -39.7634     0.0000     6.0000 </r>
       <r>   -39.5813     0.0000     6.0000 </r>
       <r>   -39.3992     0.0000     6.0000 </r>
       <r>   -39.2170     0.0000     6.0000 </r>
       <r>   -39.0349     0.0000     6.0000 </r>
       <r>   -38.8527     0.0000     6.0000 </r>
       <r>   -38.6706     0.0000     6.0000 </r>
       <r>   -38.4885     0.0000     6.0000 </r>
       <r>   -38.3063     0.0000     6.0000 </r>
       <r>   -38.1242     0.0000     6.0000 </r>
       <r>   -37.9421     0.0000     6.0000 </r>
       <r>   -37.7599     0.0000     6.0000 </r>
       <r>   -37.5778     0.0000     6.0000 </r>
       <r>   -37.3956     0.0000     6.0000 </r>
       <r>   -37.2135     0.0000     6.0000 </r>
       <r>   -37.0314     0.0000     6.0000 </r>
       <r>   -36.8492     0.0000     6.0000 </r>
       <r>   -36.6671     0.0000     6.0000 </r>
       <r>   -36.4850     0.0000     6.0000 </r>
       <r>   -36.3028     0.0000     6.0000 </r>
       <r>   -36.1207     0.0000     6.0000 </r>
       <r>   -35.9385     0.0000     6.0000 </r>
       <r>   -35.7564     0.0000     6.0000 </r>
       <r>   -35.5743     0.0000     6.0000 </r>
       <r>   -35.3921     0.0000     6.0000 </r>
       <r>   -35.2100     0.0000     6.0000 </r>
       <r>   -35.0279     0.0000     6.0000 </r>
       <r>   -34.8457     0.0000     6.0000 </r>
       <r>   -34.6636     0.0000     6.0000 </r>
       <r>   -34.4814     0.0000     6.0000 </r>
       <r>   -34.2993     0.0000     6.0000 </r>
       <r>   -34.1172     0.0000     6.0000 </r>
       <r>   -33.9350     0.0000     6.0000 </r>
       <r>   -33.7529     0.0000     6.0000 </r>
       <r>   -33.5708     0.0000     6.0000 </r>
       <r>   -33.3886     0.0000     6.0000 </r>
       <r>   -33.2065     0.0000     6.0000 </r>
       <r>   -33.0243     0.0000     6.0000 </r>
       <r>   -32.8422     0.0000     6.0000 </r>
       <r>   -32.6601     0.0000     6.0000 </r>
       <r>   -32.4779     0.0000     6.0000 </r>
       <r>   -32.2958     0.0000     6.0000 </r>
       <r>   -32.1137     0.0000     6.0000 </r>
       <r>   -31.9315     0.0000     6.0000 </r>
       <r>   -31.7494     0.0000     6.0000 </r>
       <r>   -31.5672     0.0000     6.0000 </r>
       <r>   -31.3851     0.0000     6.0000 </r>
       <r>   -31.2030     0.0000     6.0000 </r>
       <r>   -31.0208     0.0000     6.0000 </r>
       <r>   -30.8387     0.0000     6.0000 </r>
       <r>   -30.6566     0.0000     6.0000 </r>
       <r>   -30.4744     0.0000     6.0000 </r>
       <r>   -30.2923     0.0000     6.0000 </r>
       <r>   -30.1101     0.0000     6.0000 </r>
       <r>   -29.9280     0.0000     6.0000 </r>
       <r>   -29.7459     0.0000     6.0000 </r>
       <r>   -29.5637     0.0000     6.0000 </r>
       <r>   -29.3816     0.0000     6.0000 </r>
       <r>   -29.1995     0.0038     6.0007 </r>
       <r>   -29.0173     0.0000     8.0000 </r>
       <r>   -28.8352     0.0000     8.0000 </r>
       <r>   -28.6530     0.0000     8.0000 </r>
       <r>   -28.4709     0.0000     8.0000 </r>
       <r>   -28.2888     0.0000     8.0000 </r>
       <r>   -28.1066     0.0000     8.0000 </r>
       <r>   -27.9245     0.0000     8.0000 </r>
       <r>   -27.7423     0.0000     8.0000 </r>
       <r>   -27.5602     0.0000     8.0000 </r>
       <r>   -27.3781     0.0000     8.0000 </r>
       <r>   -27.1959     0.0000    10.0000 </r>
       <r>   -27.0138     0.0000    10.0000 </r>
       <r>   -26.8317    10.3035    11.8766 </r>
       <r>   -26.6495    10.9807    14.0000 </r>
       <r>   -26.4674     0.0000    14.0000 </r>
       <r>   -26.2852     0.0000    14.0000 </r>
       <r>   -26.1031     7.1128    15.2955 </r>
       <r>   -25.9210     0.0000    18.0000 </r>
       <r>   -25.7388     0.0000    18.0000 </r>
       <r>   -25.5567     0.0000    18.0000 </r>
       <r>   -25.3746     0.0000    18.0000 </r>
       <r>   -25.1924     0.0000    18.0000 </r>
       <r>   -25.0103     0.0000    18.0000 </r>
       <r>   -24.8281     0.0000    18.0000 </r>
       <r>   -24.6460     0.0000    18.0000 </r>
       <r>   -24.4639     0.0000    18.0000 </r>
       <r>   -24.2817     0.0000    18.0000 </r>
       <r>   -24.0996     0.0000    18.0000 </r>
       <r>   -23.9175     0.0000    20.0000 </r>
       <r>   -23.7353     0.0000    20.0000 </r>
       <r>   -23.5532     0.0000    20.0000 </r>
       <r>   -23.3710     0.0000    20.0000 </r>
       <r>   -23.1889     0.0000    20.0000 </r>
       <r>   -23.0068     0.0000    20.0000 </r>
       <r>   -22.8246     0.0000    20.0000 </r>
       <r>   -22.6425     0.0000    20.0000 </r>
       <r>   -22.4604    10.9807    22.0000 </r>
       <r>   -22.2782    13.0363    26.3744 </r>
       <r>   -22.0961    21.9570    33.9992 </r>
       <r>   -21.9139     0.0000    34.0000 </r>
       <r>   -21.7318     0.0000    34.0000 </r>
       <r>   -21.5497     0.0000    34.0000 </r>
       <r>   -21.3675     0.0000    34.0000 </r>
       <r>   -21.1854     0.0000    34.0000 </r>
       <r>   -21.0033     0.0000    34.0000 </r>
       <r>   -20.8211     0.0000    34.0000 </r>
       <r>   -20.6390    10.9807    38.0000 </r>
       <r>   -20.4568     0.0000    38.0000 </r>
       <r>   -20.2747     0.0000    38.0000 </r>
       <r>   -20.0926     0.0000    38.0000 </r>
       <r>   -19.9104     0.0000    38.0000 </r>
       <r>   -19.7283     0.0000    38.0000 </r>
       <r>   -19.5462     0.0000    38.0000 </r>
       <r>   -19.3640     0.0000    38.0000 </r>
       <r>   -19.1819     0.0000    40.0000 </r>
       <r>   -18.9997     0.0000    42.0000 </r>
       <r>   -18.8176     0.0000    42.0000 </r>
       <r>   -18.6355    15.9518    44.9054 </r>
       <r>   -18.4533     0.0000    46.0000 </r>
       <r>   -18.2712     0.0000    50.0000 </r>
       <r>   -18.0891     0.0000    50.0000 </r>
       <r>   -17.9069     0.0000    50.0000 </r>
       <r>   -17.7248     0.0000    50.0000 </r>
       <r>   -17.5426    11.6451    52.1210 </r>
       <r>   -17.3605     0.0000    54.0000 </r>
       <r>   -17.1784    21.9614    58.0000 </r>
       <r>   -16.9962     0.0000    58.0000 </r>
       <r>   -16.8141    10.9807    60.0000 </r>
       <r>   -16.6320     0.0000    60.0000 </r>
       <r>   -16.4498     0.0000    62.0000 </r>
       <r>   -16.2677     0.0000    62.0000 </r>
       <r>   -16.0855     0.0000    62.0000 </r>
       <r>   -15.9034     1.3146    62.2394 </r>
       <r>   -15.7213     0.0000    64.0000 </r>
       <r>   -15.5391    10.9807    68.0000 </r>
       <r>   -15.3570     0.0000    68.0000 </r>
       <r>   -15.1748     0.0000    68.0000 </r>
       <r>   -14.9927     0.0000    68.0000 </r>
       <r>   -14.8106     0.0000    70.0000 </r>
       <r>   -14.6284    21.9614    76.0000 </r>
       <r>   -14.4463     0.0000    78.0000 </r>
       <r>   -14.2642     0.0000    78.0000 </r>
       <r>   -14.0820    10.9593    79.9961 </r>
       <r>   -13.8999    21.6215    83.9381 </r>
       <r>   -13.7177    26.1369    88.7605 </r>
       <r>   -13.5356     0.0000    92.0000 </r>
       <r>   -13.3535     0.8665    94.1578 </r>
       <r>   -13.1713    10.8003    97.9672 </r>
       <r>   -12.9892     0.0001   100.0000 </r>
       <r>   -12.8071    10.9807   104.0000 </r>
       <r>   -12.6249     0.0000   108.0000 </r>
       <r>   -12.4428    10.9807   110.0000 </r>
       <r>   -12.2606    10.9807   114.0000 </r>
       <r>   -12.0785    10.9785   117.9996 </r>
       <r>   -11.8964     0.0000   120.0000 </r>
       <r>   -11.7142     0.0000   120.0000 </r>
       <r>   -11.5321     0.0000   120.0000 </r>
       <r>   -11.3500     0.0000   122.0000 </r>
       <r>   -11.1678    10.9806   126.0000 </r>
       <r>   -10.9857    29.7794   133.4239 </r>
       <r>   -10.8035     0.0000   134.0000 </r>
       <r>   -10.6214     3.6666   134.6678 </r>
       <r>   -10.4393     0.0000   136.0000 </r>
       <r>   -10.2571     0.0000   138.0000 </r>
       <r>   -10.0750    21.5619   141.9272 </r>
       <r>    -9.8929     2.1211   142.3863 </r>
       <r>    -9.7107    25.0474   148.5621 </r>
       <r>    -9.5286     0.0000   154.0000 </r>
       <r>    -9.3464     0.0000   156.0000 </r>
       <r>    -9.1643     0.0000   156.0000 </r>
       <r>    -8.9822     0.0000   156.0000 </r>
       <r>    -8.8000     0.0000   156.0000 </r>
       <r>    -8.6179     0.0000   156.0000 </r>
       <r>    -8.4358     0.0000   156.0000 </r>
       <r>    -8.2536    10.9807   160.0000 </r>
       <r>    -8.0715     0.0000   160.0000 </r>
       <r>    -7.8893     0.0000   160.0000 </r>
       <r>    -7.7072     0.0000   160.0000 </r>
       <r>    -7.5251     0.0000   160.0000 </r>
       <r>    -7.3429     0.0000   160.0000 </r>
       <r>    -7.1608     0.0420   162.0076 </r>
       <r>    -6.9787    10.9775   165.9994 </r>
       <r>    -6.7965     0.0000   166.0000 </r>
       <r>    -6.6144     0.0000   166.0000 </r>
       <r>    -6.4322     0.0000   166.0000 </r>
       <r>    -6.2501     0.0000   166.0000 </r>
       <r>    -6.0680     0.0000   166.0000 </r>
       <r>    -5.8858     0.0000   166.0000 </r>
       <r>    -5.7037     0.0000   166.0000 </r>
       <r>    -5.5216     0.0000   166.0000 </r>
       <r>    -5.3394     0.0000   166.0000 </r>
       <r>    -5.1573     0.0000   168.0000 </r>
       <r>    -4.9751    10.9801   169.9999 </r>
       <r>    -4.7930    10.9807   174.0000 </r>
       <r>    -4.6109     0.0000   174.0000 </r>
       <r>    -4.4287     0.0000   174.0000 </r>
       <r>    -4.2466     0.0000   174.0000 </r>
       <r>    -4.0644     0.0000   176.0000 </r>
       <r>    -3.8823    15.8551   180.8878 </r>
       <r>    -3.7002    10.9806   184.0000 </r>
       <r>    -3.5180     0.0000   184.0000 </r>
       <r>    -3.3359     0.0000   184.0000 </r>
       <r>    -3.1538     0.0000   184.0000 </r>
       <r>    -2.9716     0.0000   186.0000 </r>
       <r>    -2.7895    10.9807   188.0000 </r>
       <r>    -2.6073    10.9287   191.9905 </r>
       <r>    -2.4252     0.0000   192.0000 </r>
       <r>    -2.2431     0.0000   192.0000 </r>
       <r>    -2.0609     0.0000   192.0000 </r>
       <r>    -1.8788    10.9807   194.0000 </r>
       <r>    -1.6967     0.0000   194.0000 </r>
       <r>    -1.5145     0.0000   198.0000 </r>
       <r>    -1.3324    10.9807   200.0000 </r>
       <r>    -1.1502    28.9901   205.2802 </r>
       <r>    -0.9681    10.9440   207.9933 </r>
       <r>    -0.7860    10.6177   211.9339 </r>
       <r>    -0.6038    10.9807   216.0000 </r>
       <r>    -0.4217     4.6845   218.8532 </r>
       <r>    -0.2396     0.0000   226.0000 </r>
       <r>    -0.0574    15.8533   230.8875 </r>
       <r>     0.1247    10.9536   235.9951 </r>
       <r>     0.3069    10.9807   238.0000 </r>
       <r>     0.4890    17.5065   245.1886 </r>
       <r>     0.6711    21.8733   251.9840 </r>
       <r>     0.8533     0.0000   256.0000 </r>
       <r>     1.0354     0.0000   256.0000 </r>
       <r>     1.2175     0.0000   256.0000 </r>
       <r>     1.3997     0.0000   256.0000 </r>
       <r>     1.5818     0.0000   256.0000 </r>
       <r>     1.7640     0.0000   256.0000 </r>
       <r>     1.9461     0.0000   256.0000 </r>
       <r>     2.1282     0.0000   256.0000 </r>
       <r>     2.3104     0.0000   256.0000 </r>
       <r>     2.4925     0.0000   256.0000 </r>
       <r>     2.6746     0.0000   256.0000 </r>
       <r>     2.8568     0.0000   256.0000 </r>
       <r>     3.0389     0.0000   256.0000 </r>
       <r>     3.2211     0.0000   256.0000 </r>
      </set>
      <set comment="spin 2">
       <r>   -51.4202     0.0000     0.0000 </r>
       <r>   -51.2381     0.0000     0.0000 </r>
       <r>   -51.0560     0.0000     0.0000 </r>
       <r>   -50.8738     0.0000     0.0000 </r>
       <r>   -50.6917     0.0000     0.0000 </r>
       <r>   -50.5096     0.0000     0.0000 </r>
       <r>   -50.3274     0.0000     0.0000 </r>
       <r>   -50.1453     0.0000     0.0000 </r>
       <r>   -49.9631     0.0000     0.0000 </r>
       <r>   -49.7810     0.0000     0.0000 </r>
       <r>   -49.5989     0.0000     0.0000 </r>
       <r>   -49.4167     0.0000     0.0000 </r>
       <r>   -49.2346     0.0000     0.0000 </r>
       <r>   -49.0525     0.0000     0.0000 </r>
       <r>   -48.8703    10.9807     2.0000 </r>
       <r>   -48.6882     0.0000     4.0000 </r>
       <r>   -48.5060    10.9807     6.0000 </r>
       <r>   -48.3239     0.0000     6.0000 </r>
       <r>   -48.1418     0.0000     6.0000 </r>
       <r>   -47.9596     0.0000     6.0000 </r>
       <r>   -47.7775     0.0000     6.0000 </r>
       <r>   -47.5954     0.0000     6.0000 </r>
       <r>   -47.4132     0.0000     6.0000 </r>
       <r>   -47.2311     0.0000     6.0000 </r>
       <r>   -47.0489     0.0000     6.0000 </r>
       <r>   -46.8668     0.0000     6.0000 </r>
       <r>   -46.6847     0.0000     6.0000 </r>
       <r>   -46.5025     0.0000     6.0000 </r>
       <r>   -46.3204     0.0000     6.0000 </r>
       <r>   -46.1383     0.0000     6.0000 </r>
       <r>   -45.9561     0.0000     6.0000 </r>
       <r>   -45.7740     0.0000     6.0000 </r>
       <r>   -45.5918     0.0000     6.0000 </r>
       <r>   -45.4097     0.0000     6.0000 </r>
       <r>   -45.2276     0.0000     6.0000 </r>
       <r>   -45.0454     0.0000     6.0000 </r>
       <r>   -44.8633     0.0000     6.0000 </r>
       <r>   -44.6812     0.0000     6.0000 </r>
       <r>   -44.4990     0.0000     6.0000 </r>
       <r>   -44.3169     0.0000     6.0000 </r>
       <r>   -44.1347     0.0000     6.0000 </r>
       <r>   -43.9526     0.0000     6.0000 </r>
       <r>   -43.7705     0.0000     6.0000 </r>
       <r>   -43.5883     0.0000     6.0000 </r>
       <r>   -43.4062     0.0000     6.0000 </r>
       <r>   -43.2241     0.0000     6.0000 </r>
       <r>   -43.0419     0.0000     6.0000 </r>
       <r>   -42.8598     0.0000     6.0000 </r>
       <r>   -42.6776     0.0000     6.0000 </r>
       <r>   -42.4955     0.0000     6.0000 </r>
       <r>   -42.3134     0.0000     6.0000 </r>
       <r>   -42.1312     0.0000     6.0000 </r>
       <r>   -41.9491     0.0000     6.0000 </r>
       <r>   -41.7670     0.0000     6.0000 </r>
       <r>   -41.5848     0.0000     6.0000 </r>
       <r>   -41.4027     0.0000     6.0000 </r>
       <r>   -41.2205     0.0000     6.0000 </r>
       <r>   -41.0384     0.0000     6.0000 </r>
       <r>   -40.8563     0.0000     6.0000 </r>
       <r>   -40.6741     0.0000     6.0000 </r>
       <r>   -40.4920     0.0000     6.0000 </r>
       <r>   -40.3099     0.0000     6.0000 </r>
       <r>   -40.1277     0.0000     6.0000 </r>
       <r>   -39.9456     0.0000     6.0000 </r>
       <r>   -39.7634     0.0000     6.0000 </r>
       <r>   -39.5813     0.0000     6.0000 </r>
       <r>   -39.3992     0.0000     6.0000 </r>
       <r>   -39.2170     0.0000     6.0000 </r>
       <r>   -39.0349     0.0000     6.0000 </r>
       <r>   -38.8527     0.0000     6.0000 </r>
       <r>   -38.6706     0.0000     6.0000 </r>
       <r>   -38.4885     0.0000     6.0000 </r>
       <r>   -38.3063     0.0000     6.0000 </r>
       <r>   -38.1242     0.0000     6.0000 </r>
       <r>   -37.9421     0.0000     6.0000 </r>
       <r>   -37.7599     0.0000     6.0000 </r>
       <r>   -37.5778     0.0000     6.0000 </r>
       <r>   -37.3956     0.0000     6.0000 </r>
       <r>   -37.2135     0.0000     6.0000 </r>
       <r>   -37.0314     0.0000     6.0000 </r>
       <r>   -36.8492     0.0000     6.0000 </r>
       <r>   -36.6671     0.0000     6.0000 </r>
       <r>   -36.4850     0.0000     6.0000 </r>
       <r>   -36.3028     0.0000     6.0000 </r>
       <r>   -36.1207     0.0000     6.0000 </r>
       <r>   -35.9385     0.0000     6.0000 </r>
       <r>   -35.7564     0.0000     6.0000 </r>
       <r>   -35.5743     0.0000     6.0000 </r>
       <r>   -35.3921     0.0000     6.0000 </r>
       <r>   -35.2100     0.0000     6.0000 </r>
       <r>   -35.0279     0.0000     6.0000 </r>
       <r>   -34.8457     0.0000     6.0000 </r>
       <r>   -34.6636     0.0000     6.0000 </r>
       <r>   -34.4814     0.0000     6.0000 </r>
       <r>   -34.2993     0.0000     6.0000 </r>
       <r>   -34.1172     0.0000     6.0000 </r>
       <r>   -33.9350     0.0000     6.0000 </r>
       <r>   -33.7529     0.0000     6.0000 </r>
       <r>   -33.5708     0.0000     6.0000 </r>
       <r>   -33.3886     0.0000     6.0000 </r>
       <r>   -33.2065     0.0000     6.0000 </r>
       <r>   -33.0243     0.0000     6.0000 </r>
       <r>   -32.8422     0.0000     6.0000 </r>
       <r>   -32.6601     0.0000     6.0000 </r>
       <r>   -32.4779     0.0000     6.0000 </r>
       <r>   -32.2958     0.0000     6.0000 </r>
       <r>   -32.1137     0.0000     6.0000 </r>
       <r>   -31.9315     0.0000     6.0000 </r>
       <r>   -31.7494     0.0000     6.0000 </r>
       <r>   -31.5672     0.0000     6.0000 </r>
       <r>   -31.3851     0.0000     6.0000 </r>
       <r>   -31.2030     0.0000     6.0000 </r>
       <r>   -31.0208     0.0000     6.0000 </r>
       <r>   -30.8387     0.0000     6.0000 </r>
       <r>   -30.6566     0.0000     6.0000 </r>
       <r>   -30.4744     0.0000     6.0000 </r>
       <r>   -30.2923     0.0000     6.0000 </r>
       <r>   -30.1101     0.0000     6.0000 </r>
       <r>   -29.9280     0.0000     6.0000 </r>
       <r>   -29.7459     0.0000     6.0000 </r>
       <r>   -29.5637     0.0000     6.0000 </r>
       <r>   -29.3816     0.0000     6.0000 </r>
       <r>   -29.1995     0.0038     6.0007 </r>
       <r>   -29.0173     0.0000     8.0000 </r>
       <r>   -28.8352     0.0000     8.0000 </r>
       <r>   -28.6530     0.0000     8.0000 </r>
       <r>   -28.4709     0.0000     8.0000 </r>
       <r>   -28.2888     0.0000     8.0000 </r>
       <r>   -28.1066     0.0000     8.0000 </r>
       <r>   -27.9245     0.0000     8.0000 </r>
       <r>   -27.7423     0.0000     8.0000 </r>
       <r>   -27.5602     0.0000     8.0000 </r>
       <r>   -27.3781     0.0000     8.0000 </r>
       <r>   -27.1959     0.0000    10.0000 </r>
       <r>   -27.0138     0.0000    10.0000 </r>
       <r>   -26.8317    10.3035    11.8766 </r>
       <r>   -26.6495    10.9807    14.0000 </r>
       <r>   -26.4674     0.0000    14.0000 </r>
       <r>   -26.2852     0.0000    14.0000 </r>
       <r>   -26.1031     7.1128    15.2955 </r>
       <r>   -25.9210     0.0000    18.0000 </r>
       <r>   -25.7388     0.0000    18.0000 </r>
       <r>   -25.5567     0.0000    18.0000 </r>
       <r>   -25.3746     0.0000    18.0000 </r>
       <r>   -25.1924     0.0000    18.0000 </r>
       <r>   -25.0103     0.0000    18.0000 </r>
       <r>   -24.8281     0.0000    18.0000 </r>
       <r>   -24.6460     0.0000    18.0000 </r>
       <r>   -24.4639     0.0000    18.0000 </r>
       <r>   -24.2817     0.0000    18.0000 </r>
       <r>   -24.0996     0.0000    18.0000 </r>
       <r>   -23.9175     0.0000    20.0000 </r>
       <r>   -23.7353     0.0000    20.0000 </r>
       <r>   -23.5532     0.0000    20.0000 </r>
       <r>   -23.3710     0.0000    20.0000 </r>
       <r>   -23.1889     0.0000    20.0000 </r>
       <r>   -23.0068     0.0000    20.0000 </r>
       <r>   -22.8246     0.0000    20.0000 </r>
       <r>   -22.6425     0.0000    20.0000 </r>
       <r>   -22.4604    10.9807    22.0000 </r>
       <r>   -22.2782    13.0363    26.3744 </r>
       <r>   -22.0961    21.9570    33.9992 </r>
       <r>   -21.9139     0.0000    34.0000 </r>
       <r>   -21.7318     0.0000    34.0000 </r>
       <r>   -21.5497     0.0000    34.0000 </r>
       <r>   -21.3675     0.0000    34.0000 </r>
       <r>   -21.1854     0.0000    34.0000 </r>
       <r>   -21.0033     0.0000    34.0000 </r>
       <r>   -20.8211     0.0000    34.0000 </r>
       <r>   -20.6390    10.9807    38.0000 </r>
       <r>   -20.4568     0.0000    38.0000 </r>
       <r>   -20.2747     0.0000    38.0000 </r>
       <r>   -20.0926     0.0000    38.0000 </r>
       <r>   -19.9104     0.0000    38.0000 </r>
       <r>   -19.7283     0.0000    38.0000 </r>
       <r>   -19.5462     0.0000    38.0000 </r>
       <r>   -19.3640     0.0000    38.0000 </r>
       <r>   -19.1819     0.0000    40.0000 </r>
       <r>   -18.9997     0.0000    42.0000 </r>
       <r>   -18.8176     0.0000    42.0000 </r>
       <r>   -18.6355    15.9518    44.9054 </r>
       <r>   -18.4533     0.0000    46.0000 </r>
       <r>   -18.2712     0.0000    50.0000 </r>
       <r>   -18.0891     0.0000    50.0000 </r>
       <r>   -17.9069     0.0000    50.0000 </r>
       <r>   -17.7248     0.0000    50.0000 </r>
       <r>   -17.5426    11.6451    52.1210 </r>
       <r>   -17.3605     0.0000    54.0000 </r>
       <r>   -17.1784    21.9614    58.0000 </r>
       <r>   -16.9962     0.0000    58.0000 </r>
       <r>   -16.8141    10.9807    60.0000 </r>
       <r>   -16.6320     0.0000    60.0000 </r>
       <r>   -16.4498     0.0000    62.0000 </r>
       <r>   -16.2677     0.0000    62.0000 </r>
       <r>   -16.0855     0.0000    62.0000 </r>
       <r>   -15.9034     1.3146    62.2394 </r>
       <r>   -15.7213     0.0000    64.0000 </r>
       <r>   -15.5391    10.9807    68.0000 </r>
       <r>   -15.3570     0.0000    68.0000 </r>
       <r>   -15.1748     0.0000    68.0000 </r>
       <r>   -14.9927     0.0000    68.0000 </r>
       <r>   -14.8106     0.0000    70.0000 </r>
       <r>   -14.6284    21.9614    76.0000 </r>
       <r>   -14.4463     0.0000    78.0000 </r>
       <r>   -14.2642     0.0000    78.0000 </r>
       <r>   -14.0820    10.9593    79.9961 </r>
       <r>   -13.8999    21.6215    83.9381 </r>
       <r>   -13.7177    26.1369    88.7605 </r>
       <r>   -13.5356     0.0000    92.0000 </r>
       <r>   -13.3535     0.8665    94.1578 </r>
       <r>   -13.1713    10.8003    97.9672 </r>
       <r>   -12.9892     0.0001   100.0000 </r>
       <r>   -12.8071    10.9807   104.0000 </r>
       <r>   -12.6249     0.0000   108.0000 </r>
       <r>   -12.4428    10.9807   110.0000 </r>
       <r>   -12.2606    10.9807   114.0000 </r>
       <r>   -12.0785    10.9785   117.9996 </r>
       <r>   -11.8964     0.0000   120.0000 </r>
       <r>   -11.7142     0.0000   120.0000 </r>
       <r>   -11.5321     0.0000   120.0000 </r>
       <r>   -11.3500     0.0000   122.0000 </r>
       <r>   -11.1678    10.9806   126.0000 </r>
       <r>   -10.9857    29.7794   133.4240 </r>
       <r>   -10.8035     0.0000   134.0000 </r>
       <r>   -10.6214     3.6667   134.6678 </r>
       <r>   -10.4393     0.0000   136.0000 </r>
       <r>   -10.2571     0.0000   138.0000 </r>
       <r>   -10.0750    21.5619   141.9272 </r>
       <r>    -9.8929     2.1211   142.3863 </r>
       <r>    -9.7107    25.0473   148.5621 </r>
       <r>    -9.5286     0.0000   154.0000 </r>
       <r>    -9.3464     0.0000   156.0000 </r>
       <r>    -9.1643     0.0000   156.0000 </r>
       <r>    -8.9822     0.0000   156.0000 </r>
       <r>    -8.8000     0.0000   156.0000 </r>
       <r>    -8.6179     0.0000   156.0000 </r>
       <r>    -8.4358     0.0000   156.0000 </r>
       <r>    -8.2536    10.9807   160.0000 </r>
       <r>    -8.0715     0.0000   160.0000 </r>
       <r>    -7.8893     0.0000   160.0000 </r>
       <r>    -7.7072     0.0000   160.0000 </r>
       <r>    -7.5251     0.0000   160.0000 </r>
       <r>    -7.3429     0.0000   160.0000 </r>
       <r>    -7.1608     0.0420   162.0077 </r>
       <r>    -6.9787    10.9775   165.9994 </r>
       <r>    -6.7965     0.0000   166.0000 </r>
       <r>    -6.6144     0.0000   166.0000 </r>
       <r>    -6.4322     0.0000   166.0000 </r>
       <r>    -6.2501     0.0000   166.0000 </r>
       <r>    -6.0680     0.0000   166.0000 </r>
       <r>    -5.8858     0.0000   166.0000 </r>
       <r>    -5.7037     0.0000   166.0000 </r>
       <r>    -5.5216     0.0000   166.0000 </r>
       <r>    -5.3394     0.0000   166.0000 </r>
       <r>    -5.1573     0.0000   168.0000 </r>
       <r>    -4.9751    10.9801   169.9999 </r>
       <r>    -4.7930    10.9807   174.0000 </r>
       <r>    -4.6109     0.0000   174.0000 </r>
       <r>    -4.4287     0.0000   174.0000 </r>
       <r>    -4.2466     0.0000   174.0000 </r>
       <r>    -4.0644     0.0000   176.0000 </r>
       <r>    -3.8823    15.8551   180.8878 </r>
       <r>    -3.7002    10.9806   184.0000 </r>
       <r>    -3.5180     0.0000   184.0000 </r>
       <r>    -3.3359     0.0000   184.0000 </r>
       <r>    -3.1538     0.0000   184.0000 </r>
       <r>    -2.9716     0.0000   186.0000 </r>
       <r>    -2.7895    10.9807   188.0000 </r>
       <r>    -2.6073    10.9287   191.9905 </r>
       <r>    -2.4252     0.0000   192.0000 </r>
       <r>    -2.2431     0.0000   192.0000 </r>
       <r>    -2.0609     0.0000   192.0000 </r>
       <r>    -1.8788    10.9807   194.0000 </r>
       <r>    -1.6967     0.0000   194.0000 </r>
       <r>    -1.5145     0.0000   198.0000 </r>
       <r>    -1.3324    10.9807   200.0000 </r>
       <r>    -1.1502    28.9894   205.2801 </r>
       <r>    -0.9681    10.9440   207.9933 </r>
       <r>    -0.7860    10.6176   211.9339 </r>
       <r>    -0.6038    10.9807   216.0000 </r>
       <r>    -0.4217     4.6837   218.8531 </r>
       <r>    -0.2396     0.0000   226.0000 </r>
       <r>    -0.0574    15.8507   230.8870 </r>
       <r>     0.1247    10.9535   235.9951 </r>
       <r>     0.3069    10.9807   238.0000 </r>
       <r>     0.4890    17.5022   245.1878 </r>
       <r>     0.6711    21.8731   251.9839 </r>
       <r>     0.8533     0.0000   256.0000 </r>
       <r>     1.0354     0.0000   256.0000 </r>
       <r>     1.2175     0.0000   256.0000 </r>
       <r>     1.3997     0.0000   256.0000 </r>
       <r>     1.5818     0.0000   256.0000 </r>
       <r>     1.7640     0.0000   256.0000 </r>
       <r>     1.9461     0.0000   256.0000 </r>
       <r>     2.1282     0.0000   256.0000 </r>
       <r>     2.3104     0.0000   256.0000 </r>
       <r>     2.4925     0.0000   256.0000 </r>
       <r>     2.6746     0.0000   256.0000 </r>
       <r>     2.8568     0.0000   256.0000 </r>
       <r>     3.0389     0.0000   256.0000 </r>
       <r>     3.2211     0.0000   256.0000 </r>
      </set>
     </set>
    </array>
   </total>
  </dos>
 </calculation>
 <structure name="finalpos" >
  <crystal>
   <varray name="basis" >
    <v>      20.00000000       0.00000000       0.00000000 </v>
    <v>       0.00000000      20.00000000       0.00000000 </v>
    <v>       0.00000000       0.00000000      20.00000000 </v>
   </varray>
   <i name="volume">   8000.00000000 </i>
   <varray name="rec_basis" >
    <v>       0.05000000       0.00000000       0.00000000 </v>
    <v>       0.00000000       0.05000000       0.00000000 </v>
    <v>       0.00000000       0.00000000       0.05000000 </v>
   </varray>
  </crystal>
  <varray name="positions" >
   <v>       0.43793752       0.56561110       0.32757008 </v>
   <v>       0.29334713       0.47671938       0.56830116 </v>
   <v>       0.45581208       0.52423376       0.38051465 </v>
   <v>       0.47372925       0.61530131       0.44986522 </v>
   <v>       0.45595175       0.65963312       0.39935201 </v>
   <v>       0.43785737       0.63472201       0.33675972 </v>
   <v>       0.52307882       0.32955005       0.67474498 </v>
   <v>       0.49710163       0.37190466       0.62618823 </v>
   <v>       0.60227374       0.41933300       0.60593616 </v>
   <v>       0.63096398       0.37761922       0.65422416 </v>
   <v>       0.73964927       0.52855915       0.53463181 </v>
   <v>       0.70082162       0.56612858       0.49044049 </v>
   <v>       0.63257913       0.55363620       0.48652424 </v>
   <v>       0.63952130       0.46927713       0.56732841 </v>
   <v>       0.70843899       0.47974495       0.57314689 </v>
   <v>       0.59134754       0.33224398       0.68903016 </v>
   <v>       0.36211554       0.48866484       0.56417415 </v>
   <v>       0.40790931       0.62211625       0.69058213 </v>
   <v>       0.47619960       0.62606623       0.67660612 </v>
   <v>       0.50295190       0.58590820       0.62668073 </v>
   <v>       0.39825425       0.53800137       0.60426081 </v>
   <v>       0.36904589       0.57756069       0.65398228 </v>
   <v>       0.37289802       0.40579857       0.48223443 </v>
   <v>       0.30486503       0.39173492       0.48443166 </v>
   <v>       0.26422003       0.42785518       0.52821594 </v>
   <v>       0.48989745       0.29510618       0.70074864 </v>
   <v>       0.61334240       0.29968355       0.72673159 </v>
   <v>       0.68424189       0.38076917       0.66478776 </v>
   <v>       0.54225374       0.36233861       0.46129841 </v>
   <v>       0.31579090       0.57306911       0.66420366 </v>
   <v>       0.44416348       0.37118871       0.61364770 </v>
   <v>       0.42392665       0.66833230       0.29622671 </v>
   <v>       0.45642762       0.71313270       0.40950260 </v>
   <v>       0.48809132       0.63358802       0.49907234 </v>
   <v>       0.56912778       0.41808713       0.41480476 </v>
   <v>       0.73767440       0.44963919       0.60776512 </v>
   <v>       0.72277620       0.60481012       0.45904817 </v>
   <v>       0.45570253       0.47012894       0.37468790 </v>
   <v>       0.40614333       0.37888556       0.44852541 </v>
   <v>       0.28443799       0.35306162       0.45202062 </v>
   <v>       0.79326502       0.53703787       0.53892527 </v>
   <v>       0.55589708       0.58769132       0.61440612 </v>
   <v>       0.42412006       0.54328620       0.27986105 </v>
   <v>       0.50894741       0.65984570       0.70400156 </v>
   <v>       0.26265982       0.50568523       0.60265428 </v>
   <v>       0.21072272       0.41813760       0.53105039 </v>
   <v>       0.60090654       0.58197914       0.45254259 </v>
   <v>       0.38544357       0.65296704       0.72941133 </v>
   <v>       0.47424490       0.54794204       0.44140236 </v>
   <v>       0.40180479       0.45306079       0.52108436 </v>
   <v>       0.53520702       0.41608490       0.59173240 </v>
   <v>       0.46544808       0.54254992       0.59041194 </v>
   <v>       0.60138410       0.50650621       0.52397638 </v>
   <v>       0.53073984       0.40562607       0.44215451 </v>
   <v>       0.50088568       0.48087016       0.51934246 </v>
  </varray>
  <varray name="selective"  type="logical" >
   <v type="logical" >  T  T  T </v>
   <v type="logical" >  T  T  T </v>
   <v type="logical" >  T  T  T </v>
   <v type="logical" >  T  T  T </v>
   <v type="logical" >  T  T  T </v>
   <v type="logical" >  T  T  T </v>
   <v type="logical" >  T  T  T </v>
   <v type="logical" >  T  T  T </v>
   <v type="logical" >  T  T  T </v>
   <v type="logical" >  T  T  T </v>
   <v type="logical" >  T  T  T </v>
   <v type="logical" >  T  T  T </v>
   <v type="logical" >  T  T  T </v>
   <v type="logical" >  T  T  T </v>
   <v type="logical" >  T  T  T </v>
   <v type="logical" >  T  T  T </v>
   <v type="logical" >  T  T  T </v>
   <v type="logical" >  T  T  T </v>
   <v type="logical" >  T  T  T </v>
   <v type="logical" >  T  T  T </v>
   <v type="logical" >  T  T  T </v>
   <v type="logical" >  T  T  T </v>
   <v type="logical" >  T  T  T </v>
   <v type="logical" >  T  T  T </v>
   <v type="logical" >  T  T  T </v>
   <v type="logical" >  T  T  T </v>
   <v type="logical" >  T  T  T </v>
   <v type="logical" >  T  T  T </v>
   <v type="logical" >  T  T  T </v>
   <v type="logical" >  T  T  T </v>
   <v type="logical" >  T  T  T </v>
   <v type="logical" >  T  T  T </v>
   <v type="logical" >  T  T  T </v>
   <v type="logical" >  T  T  T </v>
   <v type="logical" >  T  T  T </v>
   <v type="logical" >  T  T  T </v>
   <v type="logical" >  T  T  T </v>
   <v type="logical" >  T  T  T </v>
   <v type="logical" >  T  T  T </v>
   <v type="logical" >  T  T  T </v>
   <v type="logical" >  T  T  T </v>
   <v type="logical" >  T  T  T </v>
   <v type="logical" >  T  T  T </v>
   <v type="logical" >  T  T  T </v>
   <v type="logical" >  T  T  T </v>
   <v type="logical" >  T  T  T </v>
   <v type="logical" >  T  T  T </v>
   <v type="logical" >  T  T  T </v>
   <v type="logical" >  T  T  T </v>
   <v type="logical" >  T  T  T </v>
   <v type="logical" >  T  T  T </v>
   <v type="logical" >  T  T  T </v>
   <v type="logical" >  T  T  T </v>
   <v type="logical" >  T  T  T </v>
   <v type="logical" >  T  T  T </v>
  </varray>
  <nose>
   <v>      -3.00000000       0.00000000       0.00010000       0.00010000 </v>
  </nose>
 </structure>
</modeling>
