  55  55   0   0
  0.1454545E+03  0.2000000E-08  0.2000000E-08  0.2000000E-08  0.5000000E-15
  1.000000000000000E-004
  CAR 
 c2_oh2_ruthenium_mol                    
      3.14466155    -51.72535186  301     -7.18919098      1.00000000
    -51.725  0.0000E+00  0.0000E+00  0.0000E+00  0.0000E+00
    -51.542  0.0000E+00  0.0000E+00  0.0000E+00  0.0000E+00
    -51.360  0.0000E+00  0.0000E+00  0.0000E+00  0.0000E+00
    -51.177  0.0000E+00  0.0000E+00  0.0000E+00  0.0000E+00
    -50.994  0.0000E+00  0.0000E+00  0.0000E+00  0.0000E+00
    -50.811  0.0000E+00  0.0000E+00  0.0000E+00  0.0000E+00
    -50.628  0.0000E+00  0.0000E+00  0.0000E+00  0.0000E+00
    -50.445  0.0000E+00  0.0000E+00  0.0000E+00  0.0000E+00
    -50.262  0.0000E+00  0.0000E+00  0.0000E+00  0.0000E+00
    -50.079  0.0000E+00  0.0000E+00  0.0000E+00  0.0000E+00
    -49.896  0.0000E+00  0.0000E+00  0.0000E+00  0.0000E+00
    -49.713  0.0000E+00  0.0000E+00  0.0000E+00  0.0000E+00
    -49.531  0.0000E+00  0.0000E+00  0.0000E+00  0.0000E+00
    -49.348  0.0000E+00  0.0000E+00  0.0000E+00  0.0000E+00
    -49.165  0.1093E+02  0.1093E+02  0.2000E+01  0.2000E+01
    -48.982  0.0000E+00  0.0000E+00  0.4000E+01  0.4000E+01
    -48.799  0.1093E+02  0.1093E+02  0.6000E+01  0.6000E+01
    -48.616  0.0000E+00  0.0000E+00  0.6000E+01  0.6000E+01
    -48.433  0.0000E+00  0.0000E+00  0.6000E+01  0.6000E+01
    -48.250  0.0000E+00  0.0000E+00  0.6000E+01  0.6000E+01
    -48.067  0.0000E+00  0.0000E+00  0.6000E+01  0.6000E+01
    -47.884  0.0000E+00  0.0000E+00  0.6000E+01  0.6000E+01
    -47.702  0.0000E+00  0.0000E+00  0.6000E+01  0.6000E+01
    -47.519  0.0000E+00  0.0000E+00  0.6000E+01  0.6000E+01
    -47.336  0.0000E+00  0.0000E+00  0.6000E+01  0.6000E+01
    -47.153  0.0000E+00  0.0000E+00  0.6000E+01  0.6000E+01
    -46.970  0.0000E+00  0.0000E+00  0.6000E+01  0.6000E+01
    -46.787  0.0000E+00  0.0000E+00  0.6000E+01  0.6000E+01
    -46.604  0.0000E+00  0.0000E+00  0.6000E+01  0.6000E+01
    -46.421  0.0000E+00  0.0000E+00  0.6000E+01  0.6000E+01
    -46.238  0.0000E+00  0.0000E+00  0.6000E+01  0.6000E+01
    -46.055  0.0000E+00  0.0000E+00  0.6000E+01  0.6000E+01
    -45.873  0.0000E+00  0.0000E+00  0.6000E+01  0.6000E+01
    -45.690  0.0000E+00  0.0000E+00  0.6000E+01  0.6000E+01
    -45.507  0.0000E+00  0.0000E+00  0.6000E+01  0.6000E+01
    -45.324  0.0000E+00  0.0000E+00  0.6000E+01  0.6000E+01
    -45.141  0.0000E+00  0.0000E+00  0.6000E+01  0.6000E+01
    -44.958  0.0000E+00  0.0000E+00  0.6000E+01  0.6000E+01
    -44.775  0.0000E+00  0.0000E+00  0.6000E+01  0.6000E+01
    -44.592  0.0000E+00  0.0000E+00  0.6000E+01  0.6000E+01
    -44.409  0.0000E+00  0.0000E+00  0.6000E+01  0.6000E+01
    -44.226  0.0000E+00  0.0000E+00  0.6000E+01  0.6000E+01
    -44.044  0.0000E+00  0.0000E+00  0.6000E+01  0.6000E+01
    -43.861  0.0000E+00  0.0000E+00  0.6000E+01  0.6000E+01
    -43.678  0.0000E+00  0.0000E+00  0.6000E+01  0.6000E+01
    -43.495  0.0000E+00  0.0000E+00  0.6000E+01  0.6000E+01
    -43.312  0.0000E+00  0.0000E+00  0.6000E+01  0.6000E+01
    -43.129  0.0000E+00  0.0000E+00  0.6000E+01  0.6000E+01
    -42.946  0.0000E+00  0.0000E+00  0.6000E+01  0.6000E+01
    -42.763  0.0000E+00  0.0000E+00  0.6000E+01  0.6000E+01
    -42.580  0.0000E+00  0.0000E+00  0.6000E+01  0.6000E+01
    -42.397  0.0000E+00  0.0000E+00  0.6000E+01  0.6000E+01
    -42.215  0.0000E+00  0.0000E+00  0.6000E+01  0.6000E+01
    -42.032  0.0000E+00  0.0000E+00  0.6000E+01  0.6000E+01
    -41.849  0.0000E+00  0.0000E+00  0.6000E+01  0.6000E+01
    -41.666  0.0000E+00  0.0000E+00  0.6000E+01  0.6000E+01
    -41.483  0.0000E+00  0.0000E+00  0.6000E+01  0.6000E+01
    -41.300  0.0000E+00  0.0000E+00  0.6000E+01  0.6000E+01
    -41.117  0.0000E+00  0.0000E+00  0.6000E+01  0.6000E+01
    -40.934  0.0000E+00  0.0000E+00  0.6000E+01  0.6000E+01
    -40.751  0.0000E+00  0.0000E+00  0.6000E+01  0.6000E+01
    -40.568  0.0000E+00  0.0000E+00  0.6000E+01  0.6000E+01
    -40.386  0.0000E+00  0.0000E+00  0.6000E+01  0.6000E+01
    -40.203  0.0000E+00  0.0000E+00  0.6000E+01  0.6000E+01
    -40.020  0.0000E+00  0.0000E+00  0.6000E+01  0.6000E+01
    -39.837  0.0000E+00  0.0000E+00  0.6000E+01  0.6000E+01
    -39.654  0.0000E+00  0.0000E+00  0.6000E+01  0.6000E+01
    -39.471  0.0000E+00  0.0000E+00  0.6000E+01  0.6000E+01
    -39.288  0.0000E+00  0.0000E+00  0.6000E+01  0.6000E+01
    -39.105  0.0000E+00  0.0000E+00  0.6000E+01  0.6000E+01
    -38.922  0.0000E+00  0.0000E+00  0.6000E+01  0.6000E+01
    -38.739  0.0000E+00  0.0000E+00  0.6000E+01  0.6000E+01
    -38.557  0.0000E+00  0.0000E+00  0.6000E+01  0.6000E+01
    -38.374  0.0000E+00  0.0000E+00  0.6000E+01  0.6000E+01
    -38.191  0.0000E+00  0.0000E+00  0.6000E+01  0.6000E+01
    -38.008  0.0000E+00  0.0000E+00  0.6000E+01  0.6000E+01
    -37.825  0.0000E+00  0.0000E+00  0.6000E+01  0.6000E+01
    -37.642  0.0000E+00  0.0000E+00  0.6000E+01  0.6000E+01
    -37.459  0.0000E+00  0.0000E+00  0.6000E+01  0.6000E+01
    -37.276  0.0000E+00  0.0000E+00  0.6000E+01  0.6000E+01
    -37.093  0.0000E+00  0.0000E+00  0.6000E+01  0.6000E+01
    -36.910  0.0000E+00  0.0000E+00  0.6000E+01  0.6000E+01
    -36.728  0.0000E+00  0.0000E+00  0.6000E+01  0.6000E+01
    -36.545  0.0000E+00  0.0000E+00  0.6000E+01  0.6000E+01
    -36.362  0.0000E+00  0.0000E+00  0.6000E+01  0.6000E+01
    -36.179  0.0000E+00  0.0000E+00  0.6000E+01  0.6000E+01
    -35.996  0.0000E+00  0.0000E+00  0.6000E+01  0.6000E+01
    -35.813  0.0000E+00  0.0000E+00  0.6000E+01  0.6000E+01
    -35.630  0.0000E+00  0.0000E+00  0.6000E+01  0.6000E+01
    -35.447  0.0000E+00  0.0000E+00  0.6000E+01  0.6000E+01
    -35.264  0.0000E+00  0.0000E+00  0.6000E+01  0.6000E+01
    -35.081  0.0000E+00  0.0000E+00  0.6000E+01  0.6000E+01
    -34.899  0.0000E+00  0.0000E+00  0.6000E+01  0.6000E+01
    -34.716  0.0000E+00  0.0000E+00  0.6000E+01  0.6000E+01
    -34.533  0.0000E+00  0.0000E+00  0.6000E+01  0.6000E+01
    -34.350  0.0000E+00  0.0000E+00  0.6000E+01  0.6000E+01
    -34.167  0.0000E+00  0.0000E+00  0.6000E+01  0.6000E+01
    -33.984  0.0000E+00  0.0000E+00  0.6000E+01  0.6000E+01
    -33.801  0.0000E+00  0.0000E+00  0.6000E+01  0.6000E+01
    -33.618  0.0000E+00  0.0000E+00  0.6000E+01  0.6000E+01
    -33.435  0.0000E+00  0.0000E+00  0.6000E+01  0.6000E+01
    -33.252  0.0000E+00  0.0000E+00  0.6000E+01  0.6000E+01
    -33.070  0.0000E+00  0.0000E+00  0.6000E+01  0.6000E+01
    -32.887  0.0000E+00  0.0000E+00  0.6000E+01  0.6000E+01
    -32.704  0.0000E+00  0.0000E+00  0.6000E+01  0.6000E+01
    -32.521  0.0000E+00  0.0000E+00  0.6000E+01  0.6000E+01
    -32.338  0.0000E+00  0.0000E+00  0.6000E+01  0.6000E+01
    -32.155  0.0000E+00  0.0000E+00  0.6000E+01  0.6000E+01
    -31.972  0.0000E+00  0.0000E+00  0.6000E+01  0.6000E+01
    -31.789  0.0000E+00  0.0000E+00  0.6000E+01  0.6000E+01
    -31.606  0.0000E+00  0.0000E+00  0.6000E+01  0.6000E+01
    -31.423  0.0000E+00  0.0000E+00  0.6000E+01  0.6000E+01
    -31.241  0.0000E+00  0.0000E+00  0.6000E+01  0.6000E+01
    -31.058  0.0000E+00  0.0000E+00  0.6000E+01  0.6000E+01
    -30.875  0.0000E+00  0.0000E+00  0.6000E+01  0.6000E+01
    -30.692  0.0000E+00  0.0000E+00  0.6000E+01  0.6000E+01
    -30.509  0.0000E+00  0.0000E+00  0.6000E+01  0.6000E+01
    -30.326  0.0000E+00  0.0000E+00  0.6000E+01  0.6000E+01
    -30.143  0.0000E+00  0.0000E+00  0.6000E+01  0.6000E+01
    -29.960  0.0000E+00  0.0000E+00  0.6000E+01  0.6000E+01
    -29.777  0.0000E+00  0.0000E+00  0.6000E+01  0.6000E+01
    -29.594  0.0000E+00  0.0000E+00  0.6000E+01  0.6000E+01
    -29.412  0.0000E+00  0.0000E+00  0.6000E+01  0.6000E+01
    -29.229  0.2642E-02  0.2642E-02  0.6000E+01  0.6000E+01
    -29.046  0.0000E+00  0.0000E+00  0.8000E+01  0.8000E+01
    -28.863  0.0000E+00  0.0000E+00  0.8000E+01  0.8000E+01
    -28.680  0.0000E+00  0.0000E+00  0.8000E+01  0.8000E+01
    -28.497  0.0000E+00  0.0000E+00  0.8000E+01  0.8000E+01
    -28.314  0.0000E+00  0.0000E+00  0.8000E+01  0.8000E+01
    -28.131  0.0000E+00  0.0000E+00  0.8000E+01  0.8000E+01
    -27.948  0.0000E+00  0.0000E+00  0.1000E+02  0.1000E+02
    -27.765  0.0000E+00  0.0000E+00  0.1000E+02  0.1000E+02
    -27.583  0.0000E+00  0.0000E+00  0.1000E+02  0.1000E+02
    -27.400  0.0000E+00  0.0000E+00  0.1000E+02  0.1000E+02
    -27.217  0.0000E+00  0.0000E+00  0.1000E+02  0.1000E+02
    -27.034  0.0000E+00  0.0000E+00  0.1000E+02  0.1000E+02
    -26.851  0.1093E+02  0.1093E+02  0.1200E+02  0.1200E+02
    -26.668  0.0000E+00  0.0000E+00  0.1400E+02  0.1400E+02
    -26.485  0.0000E+00  0.0000E+00  0.1400E+02  0.1400E+02
    -26.302  0.1214E-14  0.1214E-14  0.1400E+02  0.1400E+02
    -26.119  0.1093E+02  0.1093E+02  0.1800E+02  0.1800E+02
    -25.936  0.0000E+00  0.0000E+00  0.1800E+02  0.1800E+02
    -25.754  0.0000E+00  0.0000E+00  0.1800E+02  0.1800E+02
    -25.571  0.0000E+00  0.0000E+00  0.1800E+02  0.1800E+02
    -25.388  0.0000E+00  0.0000E+00  0.1800E+02  0.1800E+02
    -25.205  0.0000E+00  0.0000E+00  0.1800E+02  0.1800E+02
    -25.022  0.0000E+00  0.0000E+00  0.1800E+02  0.1800E+02
    -24.839  0.0000E+00  0.0000E+00  0.1800E+02  0.1800E+02
    -24.656  0.0000E+00  0.0000E+00  0.1800E+02  0.1800E+02
    -24.473  0.0000E+00  0.0000E+00  0.1800E+02  0.1800E+02
    -24.290  0.0000E+00  0.0000E+00  0.1800E+02  0.1800E+02
    -24.107  0.0000E+00  0.0000E+00  0.1800E+02  0.1800E+02
    -23.925  0.0000E+00  0.0000E+00  0.1800E+02  0.1800E+02
    -23.742  0.0000E+00  0.0000E+00  0.1800E+02  0.1800E+02
    -23.559  0.1076E+02  0.1076E+02  0.1997E+02  0.1997E+02
    -23.376  0.0000E+00  0.0000E+00  0.2000E+02  0.2000E+02
    -23.193  0.1093E+02  0.1093E+02  0.2200E+02  0.2200E+02
    -23.010  0.0000E+00  0.0000E+00  0.2200E+02  0.2200E+02
    -22.827  0.0000E+00  0.0000E+00  0.2200E+02  0.2200E+02
    -22.644  0.1062E+02  0.1062E+02  0.2394E+02  0.2394E+02
    -22.461  0.1090E+02  0.1090E+02  0.2599E+02  0.2599E+02
    -22.278  0.2918E-02  0.2918E-02  0.2800E+02  0.2800E+02
    -22.096  0.1031E+02  0.1031E+02  0.3189E+02  0.3189E+02
    -21.913  0.0000E+00  0.0000E+00  0.3200E+02  0.3200E+02
    -21.730  0.0000E+00  0.0000E+00  0.3200E+02  0.3200E+02
    -21.547  0.7909E+01  0.7909E+01  0.3345E+02  0.3345E+02
    -21.364  0.0000E+00  0.0000E+00  0.3400E+02  0.3400E+02
    -21.181  0.6340E+01  0.6340E+01  0.3516E+02  0.3516E+02
    -20.998  0.0000E+00  0.0000E+00  0.3600E+02  0.3600E+02
    -20.815  0.1093E+02  0.1093E+02  0.3800E+02  0.3800E+02
    -20.632  0.0000E+00  0.0000E+00  0.3800E+02  0.3800E+02
    -20.449  0.0000E+00  0.0000E+00  0.3800E+02  0.3800E+02
    -20.267  0.0000E+00  0.0000E+00  0.3800E+02  0.3800E+02
    -20.084  0.0000E+00  0.0000E+00  0.3800E+02  0.3800E+02
    -19.901  0.0000E+00  0.0000E+00  0.3800E+02  0.3800E+02
    -19.718  0.0000E+00  0.0000E+00  0.3800E+02  0.3800E+02
    -19.535  0.1093E+02  0.1093E+02  0.4000E+02  0.4000E+02
    -19.352  0.2137E+01  0.2137E+01  0.4039E+02  0.4039E+02
    -19.169  0.0000E+00  0.0000E+00  0.4200E+02  0.4200E+02
    -18.986  0.0000E+00  0.0000E+00  0.4200E+02  0.4200E+02
    -18.803  0.2992E-06  0.2992E-06  0.4200E+02  0.4200E+02
    -18.620  0.0000E+00  0.0000E+00  0.4400E+02  0.4400E+02
    -18.438  0.1093E+02  0.1093E+02  0.4600E+02  0.4600E+02
    -18.255  0.8009E+01  0.8009E+01  0.4746E+02  0.4746E+02
    -18.072  0.6917E+00  0.6917E+00  0.4813E+02  0.4813E+02
    -17.889  0.1064E+02  0.1064E+02  0.5195E+02  0.5195E+02
    -17.706  0.1965E+01  0.1965E+01  0.5236E+02  0.5236E+02
    -17.523  0.0000E+00  0.0000E+00  0.5600E+02  0.5600E+02
    -17.340  0.1018E+02  0.1018E+02  0.5786E+02  0.5786E+02
    -17.157  0.0000E+00  0.0000E+00  0.5800E+02  0.5800E+02
    -16.974  0.0000E+00  0.0000E+00  0.5800E+02  0.5800E+02
    -16.791  0.0000E+00  0.0000E+00  0.6000E+02  0.6000E+02
    -16.609  0.0000E+00  0.0000E+00  0.6200E+02  0.6200E+02
    -16.426  0.0000E+00  0.0000E+00  0.6200E+02  0.6200E+02
    -16.243  0.0000E+00  0.0000E+00  0.6200E+02  0.6200E+02
    -16.060  0.0000E+00  0.0000E+00  0.6200E+02  0.6200E+02
    -15.877  0.1093E+02  0.1093E+02  0.6400E+02  0.6400E+02
    -15.694  0.3947E-03  0.3947E-03  0.6400E+02  0.6400E+02
    -15.511  0.0000E+00  0.0000E+00  0.6600E+02  0.6600E+02
    -15.328  0.1093E+02  0.1093E+02  0.6800E+02  0.6800E+02
    -15.145  0.1093E+02  0.1093E+02  0.7000E+02  0.7000E+02
    -14.962  0.0000E+00  0.0000E+00  0.7000E+02  0.7000E+02
    -14.780  0.1094E+02  0.1094E+02  0.7200E+02  0.7200E+02
    -14.597  0.0000E+00  0.0000E+00  0.7600E+02  0.7600E+02
    -14.414  0.1093E+02  0.1093E+02  0.7800E+02  0.7800E+02
    -14.231  0.1093E+02  0.1093E+02  0.8000E+02  0.8000E+02
    -14.048  0.1093E+02  0.1093E+02  0.8400E+02  0.8400E+02
    -13.865  0.5895E-02  0.5895E-02  0.8600E+02  0.8600E+02
    -13.682  0.0000E+00  0.0000E+00  0.9000E+02  0.9000E+02
    -13.499  0.0000E+00  0.0000E+00  0.9200E+02  0.9200E+02
    -13.316  0.5859E+00  0.5859E+00  0.9611E+02  0.9611E+02
    -13.133  0.1093E+02  0.1093E+02  0.1000E+03  0.1000E+03
    -12.951  0.1005E+02  0.1005E+02  0.1018E+03  0.1018E+03
    -12.768  0.1978E+02  0.1978E+02  0.1076E+03  0.1076E+03
    -12.585  0.3602E-02  0.3602E-02  0.1080E+03  0.1080E+03
    -12.402  0.1093E+02  0.1093E+02  0.1120E+03  0.1120E+03
    -12.219  0.0000E+00  0.0000E+00  0.1160E+03  0.1160E+03
    -12.036  0.1093E+02  0.1093E+02  0.1180E+03  0.1180E+03
    -11.853  0.0000E+00  0.0000E+00  0.1200E+03  0.1200E+03
    -11.670  0.3986E-05  0.3986E-05  0.1200E+03  0.1200E+03
    -11.487  0.3316E+01  0.3316E+01  0.1226E+03  0.1226E+03
    -11.304  0.0000E+00  0.0000E+00  0.1260E+03  0.1260E+03
    -11.122  0.2186E+02  0.2186E+02  0.1300E+03  0.1300E+03
    -10.939  0.0000E+00  0.0000E+00  0.1300E+03  0.1300E+03
    -10.756  0.2187E+02  0.2187E+02  0.1340E+03  0.1340E+03
    -10.573  0.1094E+02  0.1094E+02  0.1380E+03  0.1380E+03
    -10.390  0.0000E+00  0.0000E+00  0.1400E+03  0.1400E+03
    -10.207  0.7937E+00  0.7937E+00  0.1401E+03  0.1401E+03
    -10.024  0.0000E+00  0.0000E+00  0.1440E+03  0.1440E+03
     -9.841  0.1093E+02  0.1093E+02  0.1460E+03  0.1460E+03
     -9.658  0.9226E-01  0.9226E-01  0.1500E+03  0.1500E+03
     -9.475  0.1093E+02  0.1093E+02  0.1540E+03  0.1540E+03
     -9.293  0.0000E+00  0.0000E+00  0.1540E+03  0.1540E+03
     -9.110  0.0000E+00  0.0000E+00  0.1540E+03  0.1540E+03
     -8.927  0.0000E+00  0.0000E+00  0.1560E+03  0.1560E+03
     -8.744  0.1093E+02  0.1093E+02  0.1580E+03  0.1580E+03
     -8.561  0.0000E+00  0.0000E+00  0.1580E+03  0.1580E+03
     -8.378  0.1093E+02  0.1093E+02  0.1600E+03  0.1600E+03
     -8.195  0.0000E+00  0.0000E+00  0.1600E+03  0.1600E+03
     -8.012  0.0000E+00  0.0000E+00  0.1600E+03  0.1600E+03
     -7.829  0.0000E+00  0.0000E+00  0.1600E+03  0.1600E+03
     -7.646  0.0000E+00  0.0000E+00  0.1600E+03  0.1600E+03
     -7.464  0.1093E+02  0.1093E+02  0.1620E+03  0.1620E+03
     -7.281  0.6257E-04  0.6257E-04  0.1640E+03  0.1640E+03
     -7.098  0.0000E+00  0.0000E+00  0.1660E+03  0.1660E+03
     -6.915  0.0000E+00  0.0000E+00  0.1660E+03  0.1660E+03
     -6.732  0.0000E+00  0.0000E+00  0.1660E+03  0.1660E+03
     -6.549  0.0000E+00  0.0000E+00  0.1660E+03  0.1660E+03
     -6.366  0.0000E+00  0.0000E+00  0.1660E+03  0.1660E+03
     -6.183  0.0000E+00  0.0000E+00  0.1660E+03  0.1660E+03
     -6.000  0.0000E+00  0.0000E+00  0.1660E+03  0.1660E+03
     -5.817  0.2714E-01  0.2714E-01  0.1660E+03  0.1660E+03
     -5.635  0.0000E+00  0.0000E+00  0.1680E+03  0.1680E+03
     -5.452  0.0000E+00  0.0000E+00  0.1680E+03  0.1680E+03
     -5.269  0.0000E+00  0.0000E+00  0.1680E+03  0.1680E+03
     -5.086  0.3240E-01  0.3240E-01  0.1680E+03  0.1680E+03
     -4.903  0.0000E+00  0.0000E+00  0.1700E+03  0.1700E+03
     -4.720  0.0000E+00  0.0000E+00  0.1720E+03  0.1720E+03
     -4.537  0.0000E+00  0.0000E+00  0.1720E+03  0.1720E+03
     -4.354  0.0000E+00  0.0000E+00  0.1740E+03  0.1740E+03
     -4.171  0.2165E+02  0.2165E+02  0.1780E+03  0.1780E+03
     -3.988  0.1093E+02  0.1093E+02  0.1800E+03  0.1800E+03
     -3.806  0.0000E+00  0.0000E+00  0.1820E+03  0.1820E+03
     -3.623  0.3035E-14  0.3035E-14  0.1820E+03  0.1820E+03
     -3.440  0.1093E+02  0.1093E+02  0.1860E+03  0.1860E+03
     -3.257  0.1092E+02  0.1092E+02  0.1880E+03  0.1880E+03
     -3.074  0.0000E+00  0.0000E+00  0.1880E+03  0.1880E+03
     -2.891  0.3931E+00  0.3932E+00  0.1881E+03  0.1881E+03
     -2.708  0.1093E+02  0.1093E+02  0.1920E+03  0.1920E+03
     -2.525  0.0000E+00  0.0000E+00  0.1920E+03  0.1920E+03
     -2.342  0.0000E+00  0.0000E+00  0.1920E+03  0.1920E+03
     -2.159  0.0000E+00  0.0000E+00  0.1920E+03  0.1920E+03
     -1.977  0.2179E-08  0.2177E-08  0.1920E+03  0.1920E+03
     -1.794  0.0000E+00  0.0000E+00  0.1940E+03  0.1940E+03
     -1.611  0.1093E+02  0.1093E+02  0.1960E+03  0.1960E+03
     -1.428  0.0000E+00  0.0000E+00  0.1980E+03  0.1980E+03
     -1.245  0.1093E+02  0.1093E+02  0.2020E+03  0.2020E+03
     -1.062  0.1196E-10  0.1194E-10  0.2060E+03  0.2060E+03
     -0.879  0.7691E-01  0.7689E-01  0.2080E+03  0.2080E+03
     -0.696  0.1104E+02  0.1104E+02  0.2120E+03  0.2120E+03
     -0.513  0.3277E+02  0.3277E+02  0.2200E+03  0.2200E+03
     -0.330  0.2187E+02  0.2187E+02  0.2240E+03  0.2240E+03
     -0.148  0.1093E+02  0.1093E+02  0.2280E+03  0.2280E+03
      0.035  0.1095E+02  0.1095E+02  0.2320E+03  0.2320E+03
      0.218  0.1093E+02  0.1093E+02  0.2380E+03  0.2380E+03
      0.401  0.1122E+02  0.1122E+02  0.2441E+03  0.2441E+03
      0.584  0.1094E+02  0.1094E+02  0.2500E+03  0.2500E+03
      0.767  0.0000E+00  0.0000E+00  0.2560E+03  0.2560E+03
      0.950  0.0000E+00  0.0000E+00  0.2560E+03  0.2560E+03
      1.133  0.0000E+00  0.0000E+00  0.2560E+03  0.2560E+03
      1.316  0.0000E+00  0.0000E+00  0.2560E+03  0.2560E+03
      1.499  0.0000E+00  0.0000E+00  0.2560E+03  0.2560E+03
      1.681  0.0000E+00  0.0000E+00  0.2560E+03  0.2560E+03
      1.864  0.0000E+00  0.0000E+00  0.2560E+03  0.2560E+03
      2.047  0.0000E+00  0.0000E+00  0.2560E+03  0.2560E+03
      2.230  0.0000E+00  0.0000E+00  0.2560E+03  0.2560E+03
      2.413  0.0000E+00  0.0000E+00  0.2560E+03  0.2560E+03
      2.596  0.0000E+00  0.0000E+00  0.2560E+03  0.2560E+03
      2.779  0.0000E+00  0.0000E+00  0.2560E+03  0.2560E+03
      2.962  0.0000E+00  0.0000E+00  0.2560E+03  0.2560E+03
      3.145  0.0000E+00  0.0000E+00  0.2560E+03  0.2560E+03
