   55   55    1    2
  0.1454545E+03  0.2000000E-08  0.2000000E-08  0.2000000E-08  0.5000000E-15
  1.000000000000000E-004
  CAR 
 c2_oh2_ruthenium_mol                    
    166      1    128
 
  0.0000000E+00  0.0000000E+00  0.0000000E+00  0.1000000E+01
    1      -49.231260    -49.231260
    2      -49.075801    -49.075801
    3      -48.864515    -48.864515
    4      -29.203969    -29.203969
    5      -28.060834    -28.060834
    6      -26.896775    -26.896775
    7      -26.784191    -26.784191
    8      -26.244347    -26.244347
    9      -26.192989    -26.192988
   10      -23.573984    -23.573984
   11      -23.221933    -23.221933
   12      -22.657720    -22.657720
   13      -22.480428    -22.480428
   14      -22.359173    -22.359173
   15      -22.253956    -22.253956
   16      -22.106716    -22.106716
   17      -21.551034    -21.551034
   18      -21.182469    -21.182469
   19      -20.842327    -20.842327
   20      -19.614202    -19.614202
   21      -19.345977    -19.345978
   22      -18.764911    -18.764911
   23      -18.500108    -18.500108
   24      -18.259029    -18.259029
   25      -18.060939    -18.060939
   26      -17.902475    -17.902475
   27      -17.699463    -17.699463
   28      -17.650019    -17.650019
   29      -17.350649    -17.350649
   30      -16.881655    -16.881655
   31      -16.691382    -16.691382
   32      -15.899993    -15.899993
   33      -15.665978    -15.665978
   34      -15.354241    -15.354241
   35      -15.220107    -15.220107
   36      -14.810648    -14.810648
   37      -14.754199    -14.754199
   38      -14.708327    -14.708327
   39      -14.473063    -14.473063
   40      -14.309813    -14.309813
   41      -14.193668    -14.193668
   42      -14.112574    -14.112574
   43      -13.983196    -13.983196
   44      -13.841925    -13.841925
   45      -13.798674    -13.798674
   46      -13.620971    -13.620971
   47      -13.437039    -13.437039
   48      -13.425866    -13.425866
   49      -13.304950    -13.304950
   50      -13.204380    -13.204380
   51      -12.960455    -12.960455
   52      -12.894802    -12.894802
   53      -12.843004    -12.843004
   54      -12.773810    -12.773810
   55      -12.560657    -12.560657
   56      -12.456561    -12.456561
   57      -12.327573    -12.327573
   58      -12.302483    -12.302483
   59      -12.112880    -12.112880
   60      -11.992497    -11.992497
   61      -11.635216    -11.635216
   62      -11.483700    -11.483700
   63      -11.387348    -11.387348
   64      -11.198124    -11.198124
   65      -11.143022    -11.143022
   66      -10.831097    -10.831097
   67      -10.801830    -10.801830
   68      -10.679802    -10.679802
   69      -10.643001    -10.643001
   70      -10.543238    -10.543238
   71      -10.196741    -10.196741
   72      -10.156066    -10.156066
   73       -9.869977     -9.869977
   74       -9.807896     -9.807896
   75       -9.768060     -9.768060
   76       -9.641446     -9.641446
   77       -9.527238     -9.527238
   78       -9.043881     -9.043881
   79       -8.806859     -8.806859
   80       -8.435359     -8.435359
   81       -7.542104     -7.542104
   82       -7.406559     -7.406559
   83       -7.249614     -7.249614
   84       -5.797575     -5.797575
   85       -5.066382     -5.066382
   86       -4.832491     -4.832491
   87       -4.473219     -4.473219
   88       -4.195493     -4.195493
   89       -4.185875     -4.185875
   90       -4.028819     -4.028819
   91       -3.947782     -3.947782
   92       -3.565371     -3.565371
   93       -3.517449     -3.517449
   94       -3.277600     -3.277600
   95       -2.878314     -2.878315
   96       -2.785148     -2.785148
   97       -1.932313     -1.932312
   98       -1.672066     -1.672066
   99       -1.540069     -1.540068
  100       -1.338081     -1.338080
  101       -1.284145     -1.284145
  102       -1.210643     -1.210642
  103       -1.161247     -1.161245
  104       -1.012387     -1.012385
  105       -0.861776     -0.861775
  106       -0.760688     -0.760685
  107       -0.679559     -0.679558
  108       -0.583288     -0.583286
  109       -0.558772     -0.558771
  110       -0.532477     -0.532473
  111       -0.407361     -0.407357
  112       -0.371605     -0.371599
  113       -0.237996     -0.237992
  114       -0.176747     -0.176743
  115       -0.086092     -0.086088
  116       -0.042934     -0.042932
  117        0.056617      0.056619
  118        0.098339      0.098341
  119        0.161888      0.161892
  120        0.266253      0.266258
  121        0.319018      0.319022
  122        0.348802      0.348809
  123        0.414866      0.414870
  124        0.446273      0.446276
  125        0.514831      0.514833
  126        0.612400      0.612408
  127        0.625145      0.625155
  128        0.650539      0.650570
