       N       E                     dE             d eps       ncg     rms          rms(c)
DAV:   1     0.911100448159E+03    0.91110E+03   -0.58800E+04   768   0.974E+02
DAV:   2    -0.699666255967E+02   -0.98107E+03   -0.97457E+03  1024   0.160E+02
DAV:   3    -0.389397459517E+03   -0.31943E+03   -0.31902E+03   768   0.852E+01
DAV:   4    -0.410316308759E+03   -0.20919E+02   -0.20892E+02   704   0.260E+01
DAV:   5    -0.410593649160E+03   -0.27734E+00   -0.27715E+00   832   0.325E+00    0.570E+01
DAV:   6    -0.392528972265E+03    0.18065E+02   -0.34260E+02   576   0.223E+01    0.384E+01
DAV:   7    -0.382277596968E+03    0.10251E+02   -0.21777E+01   768   0.200E+01    0.235E+01
DAV:   8    -0.378208618129E+03    0.40690E+01   -0.17582E+01   768   0.959E+00    0.930E+00
DAV:   9    -0.377097098785E+03    0.11115E+01   -0.65333E+00   768   0.488E+00    0.353E+00
DAV:  10    -0.377068771079E+03    0.28328E-01   -0.29480E-01   768   0.133E+00    0.254E+00
DAV:  11    -0.376952395803E+03    0.11638E+00   -0.10845E-01   768   0.798E-01    0.130E+00
DAV:  12    -0.376872256735E+03    0.80139E-01   -0.10190E-01   768   0.680E-01    0.698E-01
DAV:  13    -0.376849175005E+03    0.23082E-01   -0.15079E-02   768   0.328E-01    0.552E-01
DAV:  14    -0.376834166583E+03    0.15008E-01   -0.19647E-02   768   0.360E-01    0.421E-01
DAV:  15    -0.376831699755E+03    0.24668E-02   -0.61325E-03   768   0.225E-01    0.288E-01
DAV:  16    -0.376836266620E+03   -0.45669E-02   -0.17713E-03   768   0.124E-01    0.208E-01
DAV:  17    -0.376845404167E+03   -0.91375E-02   -0.29120E-03   768   0.149E-01    0.924E-02
DAV:  18    -0.376849882928E+03   -0.44788E-02   -0.80291E-04   768   0.798E-02    0.857E-02
DAV:  19    -0.376854567945E+03   -0.46850E-02   -0.34835E-04   512   0.583E-02    0.482E-02
DAV:  20    -0.376857734059E+03   -0.31661E-02   -0.25209E-04   768   0.430E-02    0.310E-02
DAV:  21    -0.376859526204E+03   -0.17921E-02   -0.61397E-05   768   0.241E-02    0.218E-02
DAV:  22    -0.376861106541E+03   -0.15803E-02   -0.48054E-05   768   0.191E-02    0.120E-02
DAV:  23    -0.376861903169E+03   -0.79663E-03   -0.19860E-05   640   0.110E-02    0.994E-03
DAV:  24    -0.376862498378E+03   -0.59521E-03   -0.12655E-05   640   0.780E-03    0.537E-03
DAV:  25    -0.376862788587E+03   -0.29021E-03   -0.71881E-06   640   0.534E-03    0.258E-03
DAV:  26    -0.376862951865E+03   -0.16328E-03   -0.25337E-06   640   0.323E-03    0.192E-03
DAV:  27    -0.376863084284E+03   -0.13242E-03   -0.25861E-06   640   0.282E-03    0.106E-03
DAV:  28    -0.376863120819E+03   -0.36534E-04   -0.41121E-07   640   0.130E-03    0.837E-04
DAV:  29    -0.376863146259E+03   -0.25440E-04   -0.17996E-07   640   0.972E-04    0.519E-04
DAV:  30    -0.376863164376E+03   -0.18117E-04   -0.15368E-07   640   0.887E-04    0.285E-04
DAV:  31    -0.376863168713E+03   -0.43377E-05    0.74748E-08   640   0.368E-04
   1 F= -.37686317E+03 E0= -.37686317E+03  d E =-.786604E-18  mag=     0.0000
