 vasp.5.3.5 31Mar14 (build Apr 08 2014 12:00:03) complex                        
  
 VASP binary ID code NSC-NSCPATCH-BUILD02 date 2017.03.15  18:51:14
 running on   64 total cores
 distrk:  each k-point on   64 cores,    1 groups
 distr:  one band on NCORES_PER_BAND=   1 cores,   64 groups


--------------------------------------------------------------------------------------------------------


 INCAR:
 POTCAR:    PAW_PBE C_h 06Feb2004                 
 POTCAR:    PAW_PBE C_h 06Feb2004                 
 POTCAR:    PAW_PBE H 15Jun2001                   
 POTCAR:    PAW_PBE N_h 06Feb2004                 
 POTCAR:    PAW_PBE O_h 06Feb2004                 
 POTCAR:    PAW_PBE Ru_pv 28Jan2005               

 ----------------------------------------------------------------------------- 
|                                                                             |
|           W    W    AA    RRRRR   N    N  II  N    N   GGGG   !!!           |
|           W    W   A  A   R    R  NN   N  II  NN   N  G    G  !!!           |
|           W    W  A    A  R    R  N N  N  II  N N  N  G       !!!           |
|           W WW W  AAAAAA  RRRRR   N  N N  II  N  N N  G  GGG   !            |
|           WW  WW  A    A  R   R   N   NN  II  N   NN  G    G                |
|           W    W  A    A  R    R  N    N  II  N    N   GGGG   !!!           |
|                                                                             |
|      For optimal performance we recommend to set                            |
|        NCORE= 4 - approx SQRT( number of cores)                             |
|      NCORE specifies how many cores store one orbital (NPAR=cpu/NCORE).     |
|      This setting can  greatly improve the performance of VASP for DFT.     |
|      The default, NPAR=number of cores might be grossly inefficient         |
|      on modern multi-core architectures or massively parallel machines.     |
|      Do your own testing !!!!                                               |
|      Unfortunately you need to use the default for GW and RPA calculations. |
|      (for HF NCORE is supported but not extensively tested yet)             |
|                                                                             |
 ----------------------------------------------------------------------------- 

 POTCAR:    PAW_PBE C_h 06Feb2004                 
   VRHFIN =C: s2p2                                                              
   LEXCH  = PE                                                                  
   EATOM  =   147.1560 eV,   10.8157 Ry                                         
                                                                                
   TITEL  = PAW_PBE C_h 06Feb2004                                               
   LULTRA =        F    use ultrasoft PP ?                                      
   IUNSCR =        1    unscreen: 0-lin 1-nonlin 2-no                           
   RPACOR =    0.800    partial core radius                                     
   POMASS =   12.011; ZVAL   =    4.000    mass and valenz                      
   RCORE  =    1.100    outmost cutoff radius                                   
   RWIGS  =    1.630; RWIGS  =    0.863    wigner-seitz radius (au A)           
   ENMAX  =  700.000; ENMIN  =  500.000 eV                                      
   ICORE  =        2    local potential                                         
   LCOR   =        T    correct aug charges                                     
   LPAW   =        T    paw PP                                                  
   EAUG   =  946.768                                                            
   DEXC   =    0.000                                                            
   RMAX   =    1.128    core radius for proj-oper                               
   RAUG   =    1.300    factor for augmentation sphere                          
   RDEP   =    1.162    radius for radial grids                                 
   RDEPT  =    1.088    core radius for aug-charge                              
                                                                                
   Atomic configuration                                                         
    4 entries                                                                   
     n  l   j            E        occ.                                          
     1  0  0.50      -273.3789   2.0000                                         
     2  0  0.50       -13.7508   2.0000                                         
     2  1  0.50        -5.2854   2.0000                                         
     3  2  1.50        -5.4423   0.0000                                         
   Description                                                                  
     l       E           TYP  RCUT    TYP  RCUT                                 
     0    -13.7508458     23  1.100                                             
     0     -8.2022199     23  1.100                                             
     1     -5.2854383     23  1.100                                             
     1      1.1560700     23  1.100                                             
     2     -5.4423304      7  1.100                                             
  local pseudopotential read in
  partial core-charges read in
  partial kinetic energy density read in
  atomic valenz-charges read in
  non local Contribution for L=           0  read in
    real space projection operators read in
  non local Contribution for L=           0  read in
    real space projection operators read in
  non local Contribution for L=           1  read in
    real space projection operators read in
  non local Contribution for L=           1  read in
    real space projection operators read in
    PAW grid and wavefunctions read in
 
   number of l-projection  operators is LMAX  =           4
   number of lm-projection operators is LMMAX =           8
 
 POTCAR:    PAW_PBE C_h 06Feb2004                 
   VRHFIN =C: s2p2                                                              
   LEXCH  = PE                                                                  
   EATOM  =   147.1560 eV,   10.8157 Ry                                         
                                                                                
   TITEL  = PAW_PBE C_h 06Feb2004                                               
   LULTRA =        F    use ultrasoft PP ?                                      
   IUNSCR =        1    unscreen: 0-lin 1-nonlin 2-no                           
   RPACOR =    0.800    partial core radius                                     
   POMASS =   12.011; ZVAL   =    4.000    mass and valenz                      
   RCORE  =    1.100    outmost cutoff radius                                   
   RWIGS  =    1.630; RWIGS  =    0.863    wigner-seitz radius (au A)           
   ENMAX  =  700.000; ENMIN  =  500.000 eV                                      
   ICORE  =        2    local potential                                         
   LCOR   =        T    correct aug charges                                     
   LPAW   =        T    paw PP                                                  
   EAUG   =  946.768                                                            
   DEXC   =    0.000                                                            
   RMAX   =    1.128    core radius for proj-oper                               
   RAUG   =    1.300    factor for augmentation sphere                          
   RDEP   =    1.162    radius for radial grids                                 
   RDEPT  =    1.088    core radius for aug-charge                              
                                                                                
   Atomic configuration                                                         
    4 entries                                                                   
     n  l   j            E        occ.                                          
     1  0  0.50      -273.3789   2.0000                                         
     2  0  0.50       -13.7508   2.0000                                         
     2  1  0.50        -5.2854   2.0000                                         
     3  2  1.50        -5.4423   0.0000                                         
   Description                                                                  
     l       E           TYP  RCUT    TYP  RCUT                                 
     0    -13.7508458     23  1.100                                             
     0     -8.2022199     23  1.100                                             
     1     -5.2854383     23  1.100                                             
     1      1.1560700     23  1.100                                             
     2     -5.4423304      7  1.100                                             
  local pseudopotential read in
  partial core-charges read in
  partial kinetic energy density read in
  atomic valenz-charges read in
  non local Contribution for L=           0  read in
    real space projection operators read in
  non local Contribution for L=           0  read in
    real space projection operators read in
  non local Contribution for L=           1  read in
    real space projection operators read in
  non local Contribution for L=           1  read in
    real space projection operators read in
    PAW grid and wavefunctions read in
 
   number of l-projection  operators is LMAX  =           4
   number of lm-projection operators is LMMAX =           8
 
 POTCAR:    PAW_PBE H 15Jun2001                   
   VRHFIN =H: ultrasoft test                                                    
   LEXCH  = PE                                                                  
   EATOM  =    12.4884 eV,    0.9179 Ry                                         
                                                                                
   TITEL  = PAW_PBE H 15Jun2001                                                 
   LULTRA =        F    use ultrasoft PP ?                                      
   IUNSCR =        0    unscreen: 0-lin 1-nonlin 2-no                           
   RPACOR =    0.000    partial core radius                                     
   POMASS =    1.000; ZVAL   =    1.000    mass and valenz                      
   RCORE  =    1.100    outmost cutoff radius                                   
   RWIGS  =    0.700; RWIGS  =    0.370    wigner-seitz radius (au A)           
   ENMAX  =  250.000; ENMIN  =  200.000 eV                                      
   RCLOC  =    0.701    cutoff for local pot                                    
   LCOR   =        T    correct aug charges                                     
   LPAW   =        T    paw PP                                                  
   EAUG   =  400.000                                                            
   RMAX   =    1.123    core radius for proj-oper                               
   RAUG   =    1.200    factor for augmentation sphere                          
   RDEP   =    1.112    radius for radial grids                                 
   RDEPT  =    0.926    core radius for aug-charge                              
                                                                                
   Atomic configuration                                                         
    2 entries                                                                   
     n  l   j            E        occ.                                          
     1  0  0.50        -6.4927   1.0000                                         
     2  1  0.50        -3.4015   0.0000                                         
   Description                                                                  
     l       E           TYP  RCUT    TYP  RCUT                                 
     0     -6.4927494     23  1.100                                             
     0      6.8029130     23  1.100                                             
     1     -4.0817478     23  1.100                                             
  local pseudopotential read in
  atomic valenz-charges read in
  non local Contribution for L=           0  read in
    real space projection operators read in
  non local Contribution for L=           0  read in
    real space projection operators read in
  non local Contribution for L=           1  read in
    real space projection operators read in
    PAW grid and wavefunctions read in
 
   number of l-projection  operators is LMAX  =           3
   number of lm-projection operators is LMMAX =           5
 
 POTCAR:    PAW_PBE N_h 06Feb2004                 
   VRHFIN =N: s2p3                                                              
   LEXCH  = PE                                                                  
   EATOM  =   264.5486 eV,   19.4438 Ry                                         
                                                                                
   TITEL  = PAW_PBE N_h 06Feb2004                                               
   LULTRA =        F    use ultrasoft PP ?                                      
   IUNSCR =        1    unscreen: 0-lin 1-nonlin 2-no                           
   RPACOR =    0.800    partial core radius                                     
   POMASS =   14.001; ZVAL   =    5.000    mass and valenz                      
   RCORE  =    1.100    outmost cutoff radius                                   
   RWIGS  =    1.480; RWIGS  =    0.783    wigner-seitz radius (au A)           
   ENMAX  =  700.000; ENMIN  =  500.000 eV                                      
   ICORE  =        2    local potential                                         
   LCOR   =        T    correct aug charges                                     
   LPAW   =        T    paw PP                                                  
   EAUG   =  904.640                                                            
   DEXC   =    0.000                                                            
   RMAX   =    1.127    core radius for proj-oper                               
   RAUG   =    1.300    factor for augmentation sphere                          
   RDEP   =    1.115    radius for radial grids                                 
   RDEPT  =    1.106    core radius for aug-charge                              
                                                                                
   Atomic configuration                                                         
    4 entries                                                                   
     n  l   j            E        occ.                                          
     1  0  0.50      -384.7179   2.0000                                         
     2  0  0.50       -18.5828   2.0000                                         
     2  1  0.50        -7.0898   3.0000                                         
     3  2  1.50        -6.8029   0.0000                                         
   Description                                                                  
     l       E           TYP  RCUT    TYP  RCUT                                 
     0    -18.5828117     23  1.100                                             
     0    -15.0750597     23  1.100                                             
     1     -7.0897851     23  1.100                                             
     1     -1.9663412     23  1.100                                             
     2     -6.8029130      7  1.100                                             
  local pseudopotential read in
  partial core-charges read in
  partial kinetic energy density read in
  kinetic energy density of atom read in
  atomic valenz-charges read in
  non local Contribution for L=           0  read in
    real space projection operators read in
  non local Contribution for L=           0  read in
    real space projection operators read in
  non local Contribution for L=           1  read in
    real space projection operators read in
  non local Contribution for L=           1  read in
    real space projection operators read in
    PAW grid and wavefunctions read in
 
   number of l-projection  operators is LMAX  =           4
   number of lm-projection operators is LMMAX =           8
 
 POTCAR:    PAW_PBE O_h 06Feb2004                 
   VRHFIN =O: s2p4                                                              
   LEXCH  = PE                                                                  
   EATOM  =   432.3788 eV,   31.7789 Ry                                         
                                                                                
   TITEL  = PAW_PBE O_h 06Feb2004                                               
   LULTRA =        F    use ultrasoft PP ?                                      
   IUNSCR =        1    unscreen: 0-lin 1-nonlin 2-no                           
   RPACOR =    0.800    partial core radius                                     
   POMASS =   16.000; ZVAL   =    6.000    mass and valenz                      
   RCORE  =    1.100    outmost cutoff radius                                   
   RWIGS  =    1.400; RWIGS  =    0.741    wigner-seitz radius (au A)           
   ENMAX  =  700.000; ENMIN  =  500.000 eV                                      
   ICORE  =        2    local potential                                         
   LCOR   =        T    correct aug charges                                     
   LPAW   =        T    paw PP                                                  
   EAUG   =  888.804                                                            
   DEXC   =    0.000                                                            
   RMAX   =    1.128    core radius for proj-oper                               
   RAUG   =    1.300    factor for augmentation sphere                          
   RDEP   =    1.125    radius for radial grids                                 
   RDEPT  =    1.088    core radius for aug-charge                              
                                                                                
   Atomic configuration                                                         
    4 entries                                                                   
     n  l   j            E        occ.                                          
     1  0  0.50      -514.6923   2.0000                                         
     2  0  0.50       -23.9615   2.0000                                         
     2  1  0.50        -9.0305   4.0000                                         
     3  2  1.50        -9.5241   0.0000                                         
   Description                                                                  
     l       E           TYP  RCUT    TYP  RCUT                                 
     0    -23.9615319     23  1.100                                             
     0    -25.3221145     23  1.100                                             
     1     -9.0304911     23  1.100                                             
     1     -5.4802209     23  1.100                                             
     2     -9.5240782      7  1.100                                             
  local pseudopotential read in
  partial core-charges read in
  partial kinetic energy density read in
  atomic valenz-charges read in
  non local Contribution for L=           0  read in
    real space projection operators read in
  non local Contribution for L=           0  read in
    real space projection operators read in
  non local Contribution for L=           1  read in
    real space projection operators read in
  non local Contribution for L=           1  read in
    real space projection operators read in
    PAW grid and wavefunctions read in
 
   number of l-projection  operators is LMAX  =           4
   number of lm-projection operators is LMMAX =           8
 
 POTCAR:    PAW_PBE Ru_pv 28Jan2005               
   VRHFIN =Ru: 4p5s4d                                                           
   LEXCH  = PE                                                                  
   EATOM  =  1873.4746 eV,  137.6965 Ry                                         
                                                                                
   TITEL  = PAW_PBE Ru_pv 28Jan2005                                             
   LULTRA =        F    use ultrasoft PP ?                                      
   IUNSCR =        1    unscreen: 0-lin 1-nonlin 2-no                           
   RPACOR =    2.170    partial core radius                                     
   POMASS =  101.070; ZVAL   =   14.000    mass and valenz                      
   RCORE  =    2.500    outmost cutoff radius                                   
   RWIGS  =    2.650; RWIGS  =    1.402    wigner-seitz radius (au A)           
   ENMAX  =  240.049; ENMIN  =  180.037 eV                                      
   ICORE  =        3    local potential                                         
   LCOR   =        T    correct aug charges                                     
   LPAW   =        T    paw PP                                                  
   EAUG   =  430.792                                                            
   DEXC   =    0.000                                                            
   RMAX   =    2.546    core radius for proj-oper                               
   RAUG   =    1.300    factor for augmentation sphere                          
   RDEP   =    2.520    radius for radial grids                                 
   RDEPT  =    2.044    core radius for aug-charge                              
                                                                                
   Atomic configuration                                                         
   11 entries                                                                   
     n  l   j            E        occ.                                          
     1  0  0.50    -21933.2692   2.0000                                         
     2  0  0.50     -3153.4096   2.0000                                         
     2  1  1.50     -2823.9548   6.0000                                         
     3  0  0.50      -555.3322   2.0000                                         
     3  1  1.50      -447.1024   6.0000                                         
     3  2  2.50      -273.0570  10.0000                                         
     4  0  0.50       -76.3589   2.0000                                         
     4  1  1.50       -46.4050   6.0000                                         
     4  2  2.50        -5.2029   7.0000                                         
     5  0  0.50        -4.2392   1.0000                                         
     4  3  2.50        -1.3606   0.0000                                         
   Description                                                                  
     l       E           TYP  RCUT    TYP  RCUT                                 
     1    -46.4050190     23  2.100                                             
     1      4.0817478     23  2.100                                             
     2     -5.2028758     23  2.500                                             
     2     -6.5634584     23  2.500                                             
     0     -4.2392192     23  2.500                                             
     0      7.0918828     23  2.500                                             
     3     -5.4423304     23  2.500                                             
  local pseudopotential read in
  partial core-charges read in
  partial kinetic energy density read in
  atomic valenz-charges read in
  non local Contribution for L=           1  read in
    real space projection operators read in
  non local Contribution for L=           1  read in
    real space projection operators read in
  non local Contribution for L=           2  read in
    real space projection operators read in
  non local Contribution for L=           2  read in
    real space projection operators read in
  non local Contribution for L=           0  read in
    real space projection operators read in
  non local Contribution for L=           0  read in
    real space projection operators read in
    PAW grid and wavefunctions read in
 
   number of l-projection  operators is LMAX  =           6
   number of lm-projection operators is LMMAX =          18
 
 Optimization of the real space projectors (new method)

 maximal supplied QI-value         = 34.20
 optimisation between [QCUT,QGAM] = [ 13.34, 27.02] = [ 49.83,204.46] Ry 
 Optimized for a Real-space Cutoff    1.04 Angstroem

   l    n(q)    QCUT    max X(q) W(low)/X(q) W(high)/X(q)  e(spline) 
   0      8    13.340   134.812    0.72E-04    0.21E-03    0.27E-06
   0      8    13.340    80.524    0.70E-04    0.21E-03    0.27E-06
   1      8    13.340    79.026    0.21E-03    0.16E-03    0.33E-06
   1      8    13.340    45.188    0.20E-03    0.15E-03    0.33E-06
 Optimization of the real space projectors (new method)

 maximal supplied QI-value         = 34.20
 optimisation between [QCUT,QGAM] = [ 13.34, 27.02] = [ 49.83,204.46] Ry 
 Optimized for a Real-space Cutoff    1.04 Angstroem

   l    n(q)    QCUT    max X(q) W(low)/X(q) W(high)/X(q)  e(spline) 
   0      8    13.340   134.812    0.72E-04    0.21E-03    0.27E-06
   0      8    13.340    80.524    0.70E-04    0.21E-03    0.27E-06
   1      8    13.340    79.026    0.21E-03    0.16E-03    0.33E-06
   1      8    13.340    45.188    0.20E-03    0.15E-03    0.33E-06
 Optimization of the real space projectors (new method)

 maximal supplied QI-value         = 34.20
 optimisation between [QCUT,QGAM] = [ 13.34, 27.02] = [ 49.83,204.46] Ry 
 Optimized for a Real-space Cutoff    0.98 Angstroem

   l    n(q)    QCUT    max X(q) W(low)/X(q) W(high)/X(q)  e(spline) 
   0      8    13.340    19.460    0.18E-03    0.41E-04    0.19E-06
   0      8    13.340    12.209    0.17E-03    0.45E-04    0.18E-06
   1      7    13.340     4.655    0.16E-03    0.30E-03    0.14E-06
 Optimization of the real space projectors (new method)

 maximal supplied QI-value         = 34.20
 optimisation between [QCUT,QGAM] = [ 13.34, 27.02] = [ 49.83,204.46] Ry 
 Optimized for a Real-space Cutoff    1.04 Angstroem

   l    n(q)    QCUT    max X(q) W(low)/X(q) W(high)/X(q)  e(spline) 
   0      8    13.340   148.539    0.85E-04    0.19E-03    0.21E-06
   0      8    13.340   106.192    0.84E-04    0.19E-03    0.21E-06
   1      8    13.340    73.877    0.18E-03    0.11E-03    0.36E-06
   1      8    13.340    50.042    0.17E-03    0.11E-03    0.36E-06
 Optimization of the real space projectors (new method)

 maximal supplied QI-value         = 34.20
 optimisation between [QCUT,QGAM] = [ 13.34, 27.02] = [ 49.83,204.46] Ry 
 Optimized for a Real-space Cutoff    0.98 Angstroem

   l    n(q)    QCUT    max X(q) W(low)/X(q) W(high)/X(q)  e(spline) 
   0      8    13.340   280.207    0.16E-03    0.35E-03    0.14E-06
   0      8    13.340   228.978    0.16E-03    0.35E-03    0.14E-06
   1      7    13.340    86.127    0.23E-03    0.25E-04    0.30E-06
   1      7    13.340    65.368    0.22E-03    0.27E-04    0.30E-06
 Optimization of the real space projectors (new method)

 maximal supplied QI-value         = 15.12
 optimisation between [QCUT,QGAM] = [ 13.45, 27.06] = [ 50.69,205.06] Ry 
 Optimized for a Real-space Cutoff    1.40 Angstroem

   l    n(q)    QCUT    max X(q) W(low)/X(q) W(high)/X(q)  e(spline) 
   1     11    13.455     3.180    0.18E-04    0.25E-04    0.55E-07
   1     11    13.455     5.351    0.12E-03    0.15E-03    0.24E-06
   2     10    13.455    66.565    0.13E-03    0.46E-04    0.26E-06
   2     10    13.455    63.466    0.13E-03    0.47E-04    0.27E-06
   0     11    13.455    85.644    0.47E-04    0.16E-04    0.33E-06
   0     11    13.455    44.119    0.43E-04    0.15E-04    0.30E-06
  PAW_PBE C_h 06Feb2004                 :
 energy of atom  1       EATOM= -147.1560
 kinetic energy error for atom=    0.0286 (will be added to EATOM!!)
  PAW_PBE C_h 06Feb2004                 :
 energy of atom  2       EATOM= -147.1560
 kinetic energy error for atom=    0.0286 (will be added to EATOM!!)
  PAW_PBE H 15Jun2001                   :
 energy of atom  3       EATOM=  -12.4884
 kinetic energy error for atom=    0.0002 (will be added to EATOM!!)
  PAW_PBE N_h 06Feb2004                 :
 energy of atom  4       EATOM= -264.5486
 kinetic energy error for atom=    0.0847 (will be added to EATOM!!)
  PAW_PBE O_h 06Feb2004                 :
 energy of atom  5       EATOM= -432.3788
 kinetic energy error for atom=    0.1855 (will be added to EATOM!!)
  PAW_PBE Ru_pv 28Jan2005               :
 energy of atom  6       EATOM=-1873.4746
 kinetic energy error for atom=    0.0017 (will be added to EATOM!!)
 
 
 POSCAR: C C H N O Ru                            
  positions in direct lattice
  velocities in cartesian coordinates
 exchange correlation table for  LEXCH =        8
   RHO(1)=    0.500       N(1)  =     2000
   RHO(2)=  100.500       N(2)  =     4000
 


--------------------------------------------------------------------------------------------------------


 ion  position               nearest neighbor table
   1  0.362  0.489  0.564-  50 1.37  17 1.40  21 1.46
   2  0.438  0.566  0.328-  43 1.09   3 1.39   6 1.39
   3  0.456  0.524  0.381-  38 1.09  49 1.36   2 1.39
   4  0.474  0.615  0.450-  34 1.09  49 1.36   5 1.39
   5  0.456  0.660  0.399-  33 1.09   4 1.39   6 1.40
   6  0.438  0.635  0.337-  32 1.09   2 1.39   5 1.40
   7  0.523  0.330  0.675-  26 1.09   8 1.39  16 1.40
   8  0.497  0.372  0.626-  31 1.09  51 1.36   7 1.39
   9  0.602  0.419  0.606-  51 1.37  10 1.40  14 1.47
  10  0.631  0.378  0.654-  28 1.09  16 1.39   9 1.40
  11  0.740  0.529  0.535-  41 1.09  15 1.39  12 1.40
  12  0.701  0.566  0.490-  37 1.09  13 1.39  11 1.40
  13  0.633  0.554  0.487-  47 1.09  53 1.36  12 1.39
  14  0.640  0.469  0.567-  53 1.37  15 1.40   9 1.47
  15  0.708  0.480  0.573-  36 1.09  11 1.39  14 1.40
  16  0.591  0.332  0.689-  27 1.09  10 1.39   7 1.40
  17  0.293  0.477  0.568-  45 1.09  25 1.39   1 1.40
  18  0.408  0.622  0.691-  48 1.09  22 1.39  19 1.40
  19  0.476  0.626  0.677-  44 1.09  20 1.39  18 1.40
  20  0.503  0.586  0.627-  42 1.09  52 1.36  19 1.39
  21  0.398  0.538  0.604-  52 1.38  22 1.40   1 1.46
  22  0.369  0.578  0.654-  30 1.09  18 1.39  21 1.40
  23  0.373  0.406  0.482-  39 1.09  50 1.35  24 1.39
  24  0.305  0.392  0.484-  40 1.09  23 1.39  25 1.40
  25  0.264  0.428  0.528-  46 1.09  17 1.39  24 1.40
  26  0.490  0.295  0.701-   7 1.09
  27  0.613  0.300  0.727-  16 1.09
  28  0.684  0.381  0.665-  10 1.09
  29  0.542  0.362  0.461-  54 0.97
  30  0.316  0.573  0.664-  22 1.09
  31  0.444  0.371  0.614-   8 1.09
  32  0.424  0.668  0.296-   6 1.09
  33  0.456  0.713  0.410-   5 1.09
  34  0.488  0.634  0.499-   4 1.09
  35  0.569  0.418  0.415-  54 0.98
  36  0.738  0.450  0.608-  15 1.09
  37  0.723  0.605  0.459-  12 1.09
  38  0.456  0.470  0.375-   3 1.09
  39  0.406  0.379  0.449-  23 1.09
  40  0.284  0.353  0.452-  24 1.09
  41  0.793  0.537  0.539-  11 1.09
  42  0.556  0.588  0.614-  20 1.09
  43  0.424  0.543  0.280-   2 1.09
  44  0.509  0.660  0.704-  19 1.09
  45  0.263  0.506  0.603-  17 1.09
  46  0.211  0.418  0.531-  25 1.09
  47  0.601  0.582  0.453-  13 1.09
  48  0.385  0.653  0.729-  18 1.09
  49  0.474  0.548  0.441-   4 1.36   3 1.36  55 2.12
  50  0.402  0.453  0.521-  23 1.35   1 1.37  55 2.06
  51  0.535  0.416  0.592-   8 1.36   9 1.37  55 2.06
  52  0.465  0.543  0.590-  20 1.36  21 1.38  55 2.01
  53  0.601  0.507  0.524-  13 1.36  14 1.37  55 2.08
  54  0.531  0.406  0.442-  29 0.97  35 0.98  55 2.24
  55  0.501  0.481  0.519-  52 2.01  50 2.06  51 2.06  53 2.08  49 2.12  54 2.24
 
  LATTYP: Found a simple cubic cell.
 ALAT       =    20.0000000000
  
  Lattice vectors:
  
 A1 = (  20.0000000000,   0.0000000000,   0.0000000000)
 A2 = (   0.0000000000,  20.0000000000,   0.0000000000)
 A3 = (   0.0000000000,   0.0000000000,  20.0000000000)


Analysis of symmetry for initial positions (statically):
=====================================================================
 Subroutine PRICEL returns:
 Original cell was already a primitive cell.
 

 Routine SETGRP: Setting up the symmetry group for a 
 simple cubic supercell.


 Subroutine GETGRP returns: Found  1 space group operations
 (whereof  1 operations were pure point group operations)
 out of a pool of 48 trial point group operations.


The static configuration has the point symmetry C_1 .


Analysis of symmetry for dynamics (positions and initial velocities):
=====================================================================
 Subroutine PRICEL returns:
 Original cell was already a primitive cell.
 

 Routine SETGRP: Setting up the symmetry group for a 
 simple cubic supercell.


 Subroutine GETGRP returns: Found  1 space group operations
 (whereof  1 operations were pure point group operations)
 out of a pool of 48 trial point group operations.


The dynamic configuration has the point symmetry C_1 .


Analysis of constrained symmetry for selective dynamics:
=====================================================================
 Subroutine PRICEL returns:
 Original cell was already a primitive cell.
 

 Routine SETGRP: Setting up the symmetry group for a 
 simple cubic supercell.


 Subroutine GETGRP returns: Found  1 space group operations
 (whereof  1 operations were pure point group operations)
 out of a pool of 48 trial point group operations.


The constrained configuration has the point symmetry C_1 .


Analysis of magnetic symmetry:
=====================================================================
 Subroutine PRICEL returns:
 Original cell was already a primitive cell.
 

 Subroutine MAGSYM returns: Found  1 space group operations
 (whereof  1 operations were pure point group operations)
 out of a pool of  1 trial space group operations
 (whereof  1 operations were pure point group operations)
 and found also     1 'primitive' translations


The magnetic configuration has the point symmetry C_1 .
 
 
 KPOINTS: K-Points                                

Automatic generation of k-mesh.
Space group operators:
 irot       det(A)        alpha          n_x          n_y          n_z        tau_x        tau_y        tau_z
    1     1.000000     0.000000     1.000000     0.000000     0.000000     0.000000     0.000000     0.000000
 
 Subroutine IBZKPT returns following result:
 ===========================================
 
 Found      1 irreducible k-points:
 
 Following reciprocal coordinates:
            Coordinates               Weight
  0.000000  0.000000  0.000000      1.000000
 
 Following cartesian coordinates:
            Coordinates               Weight
  0.000000  0.000000  0.000000      1.000000
 


--------------------------------------------------------------------------------------------------------




 Dimension of arrays:
   k-points           NKPTS =      1   k-points in BZ     NKDIM =      1   number of bands    NBANDS=    128
   number of dos      NEDOS =    301   number of ions     NIONS =     55
   non local maximal  LDIM  =      6   non local SUM 2l+1 LMDIM =     18
   total plane-waves  NPLWV = ******
   max r-space proj   IRMAX =   8473   max aug-charges    IRDMAX= 268848
   dimension x,y,z NGX =   180 NGY =  180 NGZ =  180
   dimension x,y,z NGXF=   360 NGYF=  360 NGZF=  360
   support grid    NGXF=   720 NGYF=  720 NGZF=  720
   ions per type =               1  24  23   5   1   1
 NGX,Y,Z   is equivalent  to a cutoff of  14.96, 14.96, 14.96 a.u.
 NGXF,Y,Z  is equivalent  to a cutoff of  29.92, 29.92, 29.92 a.u.


 I would recommend the setting:
   dimension x,y,z NGX =   173 NGY =  173 NGZ =  173
 SYSTEM =  c2_oh2_ruthenium_mol                    
 POSCAR =  C C H N O Ru                            

 Startparameter for this run:
   NWRITE =      2    write-flag & timer
   PREC   = accura    normal or accurate (medium, high low for compatibility)
   ISTART =      0    job   : 0-new  1-cont  2-samecut
   ICHARG =      2    charge: 1-file 2-atom 10-const
   ISPIN  =      2    spin polarized calculation?
   LNONCOLLINEAR =      F non collinear calculations
   LSORBIT =      F    spin-orbit coupling
   INIWAV =      1    electr: 0-lowe 1-rand  2-diag
   LASPH  =      F    aspherical Exc in radial PAW
   METAGGA=      F    non-selfconsistent MetaGGA calc.

 Electronic Relaxation 1
   ENCUT  =  700.0 eV  51.45 Ry    7.17 a.u.  43.15 43.15 43.15*2*pi/ulx,y,z
   ENINI  =  700.0     initial cutoff
   ENAUG  =  946.8 eV  augmentation charge cutoff
   NELM   =     60;   NELMIN=  2; NELMDL= -5     # of ELM steps 
   EDIFF  = 0.1E-04   stopping-criterion for ELM
   LREAL  =      T    real-space projection
   NLSPLINE    = F    spline interpolate recip. space projectors
   LCOMPAT=      F    compatible to vasp.4.4
   GGA_COMPAT  = T    GGA compatible to vasp.4.4-vasp.4.6
   LMAXPAW     = -100 max onsite density
   LMAXMIX     =    2 max onsite mixed and CHGCAR
   VOSKOWN=      0    Vosko Wilk Nusair interpolation
   ROPT   =   -0.00025  -0.00025  -0.00025  -0.00025
   ROPT   =   -0.00025  -0.00025
 Ionic relaxation
   EDIFFG = -.1E-01   stopping-criterion for IOM
   NSW    =      0    number of steps for IOM
   NBLOCK =      1;   KBLOCK =      1    inner block; outer block 
   IBRION =     -1    ionic relax: 0-MD 1-quasi-New 2-CG
   NFREE  =      0    steps in history (QN), initial steepest desc. (CG)
   ISIF   =      2    stress and relaxation
   IWAVPR =     10    prediction:  0-non 1-charg 2-wave 3-comb
   ISYM   =      2    0-nonsym 1-usesym 2-fastsym
   LCORR  =      T    Harris-Foulkes like correction to forces

   POTIM  = 0.5000    time-step for ionic-motion
   TEIN   =    0.0    initial temperature
   TEBEG  =    0.0;   TEEND  =   0.0 temperature during run
   SMASS  =  -3.00    Nose mass-parameter (am)
   estimated Nose-frequenzy (Omega)   =  0.10E-29 period in steps =****** mass=  -0.914E-26a.u.
   SCALEE = 1.0000    scale energy and forces
   NPACO  =    256;   APACO  = 16.0  distance and # of slots for P.C.
   PSTRESS=    0.0 pullay stress

  Mass of Ions in am
   POMASS =  12.01 12.01  1.00 14.00 16.00101.07
  Ionic Valenz
   ZVAL   =   4.50  4.00  1.00  5.00  6.00 14.00
  Atomic Wigner-Seitz radii
   RWIGS  =  -1.00 -1.00 -1.00 -1.00 -1.00 -1.00
  virtual crystal weights 
   VCA    =   1.00  1.00  1.00  1.00  1.00  1.00
   NELECT =     166.0000    total number of electrons
   NUPDOWN=       0.0000    fix difference up-down

 DOS related values:
   EMIN   =  10.00;   EMAX   =-10.00  energy-range for DOS
   EFERMI =   0.00
   ISMEAR =     0;   SIGMA  =   0.01  broadening in eV -4-tet -1-fermi 0-gaus

 Electronic relaxation 2 (details)
   IALGO  =     38    algorithm
   LDIAG  =      T    sub-space diagonalisation (order eigenvalues)
   LSUBROT=      F    optimize rotation matrix (better conditioning)
   TURBO    =      0    0=normal 1=particle mesh
   IRESTART =      0    0=no restart 2=restart with 2 vectors
   NREBOOT  =      0    no. of reboots
   NMIN     =      0    reboot dimension
   EREF     =   0.00    reference energy to select bands
   IMIX   =      4    mixing-type and parameters
     AMIX     =   0.40;   BMIX     =  2.00
     AMIX_MAG =   1.60;   BMIX_MAG =  2.00
     AMIN     =   0.10
     WC   =   100.;   INIMIX=   1;  MIXPRE=   1;  MAXMIX= -45

 Intra band minimization:
   WEIMIN = 0.0000     energy-eigenvalue tresh-hold
   EBREAK =  0.20E-07  absolut break condition
   DEPER  =   0.30     relativ break condition  

   TIME   =   0.05     timestep for ELM

  volume/ion in A,a.u.               =     145.45       981.58
  Fermi-wavevector in a.u.,A,eV,Ry     =   0.449864  0.850119  2.753510  0.202377
  Thomas-Fermi vector in A             =   1.430192
 
 Write flags
   LWAVE  =      T    write WAVECAR
   LCHARG =      T    write CHGCAR
   LVTOT  =      F    write LOCPOT, total local potential
   LVHAR  =      F    write LOCPOT, Hartree potential only
   LELF   =      F    write electronic localiz. function (ELF)
   LORBIT =      0    0 simple, 1 ext, 2 COOP (PROOUT)


 Dipole corrections
   LMONO  =      F    monopole corrections only (constant potential shift)
   LDIPOL =      F    correct potential (dipole corrections)
   IDIPOL =      0    1-x, 2-y, 3-z, 4-all directions 
   EPSILON=  1.0000000 bulk dielectric constant

 Core level calculations are selected ICORELEVEL =  2
  CLNT =           1       CLN =     1
  CLL  =           0       CLZ = 0.500
 Exchange correlation treatment:
   GGA     =    --    GGA type
   LEXCH   =     8    internal setting for exchange type
   VOSKOWN=      0    Vosko Wilk Nusair interpolation
   LHFCALC =     F    Hartree Fock is set to
   LHFONE  =     F    Hartree Fock one center treatment
   AEXX    =    0.0000 exact exchange contribution

 Linear response parameters
   LEPSILON=     F    determine dielectric tensor
   LRPA    =     F    only Hartree local field effects (RPA)
   LNABLA  =     F    use nabla operator in PAW spheres
   LVEL    =     F    velocity operator in full k-point grid
   LINTERFAST=   F  fast interpolation
   KINTER  =     0    interpolate to denser k-point grid
   CSHIFT  =0.1000    complex shift for real part using Kramers Kronig
   OMEGAMAX=  -1.0    maximum frequency
   DEG_THRESHOLD= 0.2000000E-02 threshold for treating states as degnerate
   RTIME   =    0.100 relaxation time in fs

 Orbital magnetization related:
   ORBITALMAG=     F  switch on orbital magnetization
   LCHIMAG   =     F  perturbation theory with respect to B field
   DQ        =  0.001000  dq finite difference perturbation B field



--------------------------------------------------------------------------------------------------------


 Static calculation
 charge density and potential will be updated during run
 spin polarized calculation
 Variant of blocked Davidson
 Davidson routine will perform the subspace rotation
 perform sub-space diagonalisation
    after iterative eigenvector-optimisation
 modified Broyden-mixing scheme, WC =      100.0
 initial mixing is a Kerker type mixing with AMIX =  0.4000 and BMIX =      2.0000
 Hartree-type preconditioning will be used
 using additional bands           45
 real space projection scheme for non local part
 use partial core corrections
 calculate Harris-corrections to forces 
   (improved forces if not selfconsistent)
 use gradient corrections 
 use of overlap-Matrix (Vanderbilt PP)
 Gauss-broadening in eV      SIGMA  =   0.01


--------------------------------------------------------------------------------------------------------


  energy-cutoff  :      700.00
  volume of cell :     8000.00
      direct lattice vectors                 reciprocal lattice vectors
    20.000000000  0.000000000  0.000000000     0.050000000  0.000000000  0.000000000
     0.000000000 20.000000000  0.000000000     0.000000000  0.050000000  0.000000000
     0.000000000  0.000000000 20.000000000     0.000000000  0.000000000  0.050000000

  length of vectors
    20.000000000 20.000000000 20.000000000     0.050000000  0.050000000  0.050000000


 
 k-points in units of 2pi/SCALE and weight: K-Points                                
   0.00000000  0.00000000  0.00000000       1.000
 
 k-points in reciprocal lattice and weights: K-Points                                
   0.00000000  0.00000000  0.00000000       1.000
 
 position of ions in fractional coordinates (direct lattice) 
   0.36211554  0.48866484  0.56417415
   0.43793752  0.56561110  0.32757008
   0.45581208  0.52423376  0.38051465
   0.47372925  0.61530131  0.44986522
   0.45595175  0.65963312  0.39935201
   0.43785737  0.63472201  0.33675972
   0.52307882  0.32955005  0.67474498
   0.49710163  0.37190466  0.62618823
   0.60227374  0.41933300  0.60593616
   0.63096398  0.37761922  0.65422416
   0.73964927  0.52855915  0.53463181
   0.70082162  0.56612858  0.49044049
   0.63257913  0.55363620  0.48652424
   0.63952130  0.46927713  0.56732841
   0.70843899  0.47974495  0.57314689
   0.59134754  0.33224398  0.68903016
   0.29334713  0.47671938  0.56830116
   0.40790931  0.62211625  0.69058213
   0.47619960  0.62606623  0.67660612
   0.50295190  0.58590820  0.62668073
   0.39825425  0.53800137  0.60426081
   0.36904589  0.57756069  0.65398228
   0.37289802  0.40579857  0.48223443
   0.30486503  0.39173492  0.48443166
   0.26422003  0.42785518  0.52821594
   0.48989745  0.29510618  0.70074864
   0.61334240  0.29968355  0.72673159
   0.68424189  0.38076917  0.66478776
   0.54225374  0.36233861  0.46129841
   0.31579090  0.57306911  0.66420366
   0.44416348  0.37118871  0.61364770
   0.42392665  0.66833230  0.29622671
   0.45642762  0.71313270  0.40950260
   0.48809132  0.63358802  0.49907234
   0.56912778  0.41808713  0.41480476
   0.73767440  0.44963919  0.60776512
   0.72277620  0.60481012  0.45904817
   0.45570253  0.47012894  0.37468790
   0.40614333  0.37888556  0.44852541
   0.28443799  0.35306162  0.45202062
   0.79326502  0.53703787  0.53892527
   0.55589708  0.58769132  0.61440612
   0.42412006  0.54328620  0.27986105
   0.50894741  0.65984570  0.70400156
   0.26265982  0.50568523  0.60265428
   0.21072272  0.41813760  0.53105039
   0.60090654  0.58197914  0.45254259
   0.38544357  0.65296704  0.72941133
   0.47424490  0.54794204  0.44140236
   0.40180479  0.45306079  0.52108436
   0.53520702  0.41608490  0.59173240
   0.46544808  0.54254992  0.59041194
   0.60138410  0.50650621  0.52397638
   0.53073984  0.40562607  0.44215451
   0.50088568  0.48087016  0.51934246
 
 position of ions in cartesian coordinates  (Angst):
   7.24231077  9.77329687 11.28348299
   8.75875044 11.31222209  6.55140167
   9.11624161 10.48467523  7.61029296
   9.47458509 12.30602619  8.99730442
   9.11903505 13.19266234  7.98704025
   8.75714739 12.69444028  6.73519441
  10.46157638  6.59100110 13.49489953
   9.94203263  7.43809325 12.52376455
  12.04547477  8.38665999 12.11872314
  12.61927957  7.55238445 13.08448329
  14.79298537 10.57118301 10.69263621
  14.01643234 11.32257164  9.80880974
  12.65158254 11.07272405  9.73048485
  12.79042597  9.38554253 11.34656829
  14.16877978  9.59489901 11.46293786
  11.82695089  6.64487969 13.78060313
   5.86694270  9.53438759 11.36602327
   8.15818611 12.44232505 13.81164268
   9.52399198 12.52132464 13.53212240
  10.05903801 11.71816400 12.53361469
   7.96508499 10.76002740 12.08521614
   7.38091777 11.55121387 13.07964553
   7.45796037  8.11597149  9.64468853
   6.09730063  7.83469839  9.68863321
   5.28440067  8.55710369 10.56431882
   9.79794892  5.90212351 14.01497288
  12.26684793  5.99367109 14.53463185
  13.68483783  7.61538334 13.29575520
  10.84507475  7.24677213  9.22596819
   6.31581791 11.46138226 13.28407311
   8.88326966  7.42377422 12.27295397
   8.47853309 13.36664601  5.92453423
   9.12855243 14.26265408  8.19005201
   9.76182647 12.67176037  9.98144677
  11.38255564  8.36174255  8.29609511
  14.75348806  8.99278384 12.15530242
  14.45552391 12.09620238  9.18096343
   9.11405064  9.40257887  7.49375804
   8.12286663  7.57771114  8.97050829
   5.68875982  7.06123239  9.04041232
  15.86530045 10.74075733 10.77850539
  11.11794158 11.75382641 12.28812234
   8.48240128 10.86572407  5.59722093
  10.17894811 13.19691406 14.08003122
   5.25319634 10.11370460 12.05308551
   4.21445446  8.36275200 10.62100772
  12.01813087 11.63958272  9.05085175
   7.70887141 13.05934086 14.58822659
   9.48489793 10.95884088  8.82804729
   8.03609572  9.06121573 10.42168714
  10.70414049  8.32169803 11.83464804
   9.30896151 10.85099836 11.80823871
  12.02768196 10.13012430 10.47952760
  10.61479684  8.11252146  8.84309019
  10.01771355  9.61740316 10.38684921
 


--------------------------------------------------------------------------------------------------------


 k-point  1 :   0.0000 0.0000 0.0000  plane waves:  336427

 maximum and minimum number of plane-waves per node :    336427   336427

 maximum number of plane-waves:    336427
 maximum index in each direction: 
   IXMAX=   43   IYMAX=   43   IZMAX=   43
   IXMIN=  -43   IYMIN=  -43   IZMIN=  -43

 NGX is ok and might be reduce to 174
 NGY is ok and might be reduce to 174
 NGZ is ok and might be reduce to 174

 serial   3D FFT for wavefunctions
 parallel 3D FFT for charge:
    minimum data exchange during FFTs selected (reduces bandwidth)


 total amount of memory used by VASP on root node   877132. kBytes
========================================================================

   base      :      30000. kBytes
   nonlr-proj:      19361. kBytes
   fftplans  :     269516. kBytes
   grid      :     534988. kBytes
   one-center:       1710. kBytes
   wavefun   :      21557. kBytes
 
     INWAV:  cpu time    0.00: real time    0.00
 Broyden mixing: mesh for mixing (old mesh)
   NGX = 87   NGY = 87   NGZ = 87
  (NGX  =360   NGY  =360   NGZ  =360)
  gives a total of 658503 points

 initial charge density was supplied:
 charge density of overlapping atoms calculated
 number of electron     168.5000000 magnetization       0.0000000
 keeping initial charge density in first step


--------------------------------------------------------------------------------------------------------


 Maximum index for non-local projection operator         8166
 Maximum index for augmentation-charges         3214 (set IRDMAX)


--------------------------------------------------------------------------------------------------------


 First call to EWALD:  gamma=   0.089
 Maximum number of real-space cells 3x 3x 3
 Maximum number of reciprocal cells 3x 3x 3

 FEWALD executed in parallel
    FEWALD:  cpu time    0.00: real time    0.00


----------------------------------------- Iteration    1(   1)  ---------------------------------------


    POTLOK:  cpu time    4.78: real time    4.81
    SETDIJ:  cpu time    2.97: real time    2.98
     EDDAV:  cpu time   14.88: real time   15.78
       DOS:  cpu time    0.01: real time    0.01
    --------------------------------------------
      LOOP:  cpu time   22.64: real time   23.59

 eigenvalue-minimisations  :   768
 total energy-change (2. order) : 0.9111004E+03  (-0.5880030E+04)
 number of electron     168.5000000 magnetization       0.0000000
 augmentation part      168.5000000 magnetization       0.0000000

 Free energy of the ion-electron system (eV)
  ---------------------------------------------------
  alpha Z        PSCENC =        12.91687988
  Ewald energy   TEWEN  =     23339.30524205
  -Hartree energ DENC   =    -28940.97582672
  -exchange      EXHF   =         0.00000000
  -V(xc)+E(xc)   XCENC  =       401.01754695
  PAW double counting   =      5890.45591622    -5710.10246236
  entropy T*S    EENTRO =        -0.00001710
  eigenvalues    EBANDS =     -1674.91674196
  atomic energy  EATOM  =      7593.39991119
  ---------------------------------------------------
  free energy    TOTEN  =       911.10044816 eV

  energy without entropy =      911.10046526  energy(sigma->0) =      911.10045671


--------------------------------------------------------------------------------------------------------




----------------------------------------- Iteration    1(   2)  ---------------------------------------


     EDDAV:  cpu time   19.16: real time   20.38
       DOS:  cpu time    0.01: real time    0.01
    --------------------------------------------
      LOOP:  cpu time   19.16: real time   20.39

 eigenvalue-minimisations  :  1024
 total energy-change (2. order) :-0.9810671E+03  (-0.9745707E+03)
 number of electron     168.5000000 magnetization       0.0000000
 augmentation part      168.5000000 magnetization       0.0000000

 Free energy of the ion-electron system (eV)
  ---------------------------------------------------
  alpha Z        PSCENC =        12.91687988
  Ewald energy   TEWEN  =     23339.30524205
  -Hartree energ DENC   =    -28940.97582672
  -exchange      EXHF   =         0.00000000
  -V(xc)+E(xc)   XCENC  =       401.01754695
  PAW double counting   =      5890.45591622    -5710.10246236
  entropy T*S    EENTRO =        -0.00000000
  eigenvalues    EBANDS =     -2655.98383282
  atomic energy  EATOM  =      7593.39991119
  ---------------------------------------------------
  free energy    TOTEN  =       -69.96662560 eV

  energy without entropy =      -69.96662560  energy(sigma->0) =      -69.96662560


--------------------------------------------------------------------------------------------------------




----------------------------------------- Iteration    1(   3)  ---------------------------------------


     EDDAV:  cpu time   15.02: real time   15.86
       DOS:  cpu time    0.01: real time    0.01
    --------------------------------------------
      LOOP:  cpu time   15.03: real time   15.88

 eigenvalue-minimisations  :   768
 total energy-change (2. order) :-0.3194308E+03  (-0.3190204E+03)
 number of electron     168.5000000 magnetization       0.0000000
 augmentation part      168.5000000 magnetization       0.0000000

 Free energy of the ion-electron system (eV)
  ---------------------------------------------------
  alpha Z        PSCENC =        12.91687988
  Ewald energy   TEWEN  =     23339.30524205
  -Hartree energ DENC   =    -28940.97582672
  -exchange      EXHF   =         0.00000000
  -V(xc)+E(xc)   XCENC  =       401.01754695
  PAW double counting   =      5890.45591622    -5710.10246236
  entropy T*S    EENTRO =        -0.00000000
  eigenvalues    EBANDS =     -2975.41466674
  atomic energy  EATOM  =      7593.39991119
  ---------------------------------------------------
  free energy    TOTEN  =      -389.39745952 eV

  energy without entropy =     -389.39745952  energy(sigma->0) =     -389.39745952


--------------------------------------------------------------------------------------------------------




----------------------------------------- Iteration    1(   4)  ---------------------------------------


     EDDAV:  cpu time   13.88: real time   14.73
       DOS:  cpu time    0.01: real time    0.01
    --------------------------------------------
      LOOP:  cpu time   13.89: real time   14.74

 eigenvalue-minimisations  :   704
 total energy-change (2. order) :-0.2091885E+02  (-0.2089204E+02)
 number of electron     168.5000000 magnetization       0.0000000
 augmentation part      168.5000000 magnetization       0.0000000

 Free energy of the ion-electron system (eV)
  ---------------------------------------------------
  alpha Z        PSCENC =        12.91687988
  Ewald energy   TEWEN  =     23339.30524205
  -Hartree energ DENC   =    -28940.97582672
  -exchange      EXHF   =         0.00000000
  -V(xc)+E(xc)   XCENC  =       401.01754695
  PAW double counting   =      5890.45591622    -5710.10246236
  entropy T*S    EENTRO =        -0.00135460
  eigenvalues    EBANDS =     -2996.33216138
  atomic energy  EATOM  =      7593.39991119
  ---------------------------------------------------
  free energy    TOTEN  =      -410.31630876 eV

  energy without entropy =     -410.31495416  energy(sigma->0) =     -410.31563146


--------------------------------------------------------------------------------------------------------




----------------------------------------- Iteration    1(   5)  ---------------------------------------


     EDDAV:  cpu time   16.02: real time   16.92
       DOS:  cpu time    0.02: real time    0.02
    CHARGE:  cpu time    5.46: real time    5.47
    MIXING:  cpu time    0.06: real time    0.07
    --------------------------------------------
      LOOP:  cpu time   21.56: real time   22.48

 eigenvalue-minimisations  :   832
 total energy-change (2. order) :-0.2773404E+00  (-0.2771546E+00)
 number of electron     166.0000000 magnetization       0.0000000
 augmentation part        3.5915622 magnetization      -0.0008708

 Broyden mixing:
  rms(total) = 0.56967E+01    rms(broyden)= 0.56961E+01
  rms(prec ) = 0.60627E+01
  weight for this iteration     100.00

 Free energy of the ion-electron system (eV)
  ---------------------------------------------------
  alpha Z        PSCENC =        12.91687988
  Ewald energy   TEWEN  =     23339.30524205
  -Hartree energ DENC   =    -28940.97582672
  -exchange      EXHF   =         0.00000000
  -V(xc)+E(xc)   XCENC  =       401.01754695
  PAW double counting   =      5890.45591622    -5710.10246236
  entropy T*S    EENTRO =        -0.00104640
  eigenvalues    EBANDS =     -2996.60980999
  atomic energy  EATOM  =      7593.39991119
  ---------------------------------------------------
  free energy    TOTEN  =      -410.59364916 eV

  energy without entropy =     -410.59260276  energy(sigma->0) =     -410.59312596


--------------------------------------------------------------------------------------------------------




----------------------------------------- Iteration    1(   6)  ---------------------------------------


    POTLOK:  cpu time    4.69: real time    4.81
    SETDIJ:  cpu time    3.00: real time    3.00
     EDDAV:  cpu time   11.99: real time   12.66
       DOS:  cpu time    0.08: real time    0.08
    CHARGE:  cpu time    5.33: real time    5.33
    MIXING:  cpu time    0.12: real time    0.12
    --------------------------------------------
      LOOP:  cpu time   25.22: real time   26.01

 eigenvalue-minimisations  :   576
 total energy-change (2. order) : 0.1806468E+02  (-0.3425996E+02)
 number of electron     166.0000000 magnetization       0.0000000
 augmentation part        6.4515280 magnetization      -0.0010421

 Broyden mixing:
  rms(total) = 0.38445E+01    rms(broyden)= 0.38444E+01
  rms(prec ) = 0.40076E+01
  weight for this iteration     100.00

 eigenvalues of (default mixing * dielectric matrix)
  average eigenvalue GAMMA=   1.0704
  1.0704

 Free energy of the ion-electron system (eV)
  ---------------------------------------------------
  alpha Z        PSCENC =        12.91687988
  Ewald energy   TEWEN  =     23339.30524205
  -Hartree energ DENC   =    -28945.84912315
  -exchange      EXHF   =         0.00000000
  -V(xc)+E(xc)   XCENC  =       406.48621900
  PAW double counting   =     20889.52703752   -20721.91069219
  entropy T*S    EENTRO =        -0.00000000
  eigenvalues    EBANDS =     -2966.40444657
  atomic energy  EATOM  =      7593.39991119
  ---------------------------------------------------
  free energy    TOTEN  =      -392.52897227 eV

  energy without entropy =     -392.52897227  energy(sigma->0) =     -392.52897227


--------------------------------------------------------------------------------------------------------




----------------------------------------- Iteration    1(   7)  ---------------------------------------


    POTLOK:  cpu time    4.64: real time    4.68
    SETDIJ:  cpu time    3.00: real time    3.00
     EDDAV:  cpu time   15.11: real time   16.32
       DOS:  cpu time    0.05: real time    0.05
    CHARGE:  cpu time    5.37: real time    5.38
    MIXING:  cpu time    0.09: real time    0.09
    --------------------------------------------
      LOOP:  cpu time   28.26: real time   29.51

 eigenvalue-minimisations  :   768
 total energy-change (2. order) : 0.1025138E+02  (-0.2177748E+01)
 number of electron     166.0000000 magnetization       0.0000000
 augmentation part        5.5479104 magnetization       0.0006201

 Broyden mixing:
  rms(total) = 0.23467E+01    rms(broyden)= 0.23466E+01
  rms(prec ) = 0.24154E+01
  weight for this iteration     100.00

 eigenvalues of (default mixing * dielectric matrix)
  average eigenvalue GAMMA=   1.4721
  0.7573  2.1869

 Free energy of the ion-electron system (eV)
  ---------------------------------------------------
  alpha Z        PSCENC =        12.91687988
  Ewald energy   TEWEN  =     23339.30524205
  -Hartree energ DENC   =    -29075.13367116
  -exchange      EXHF   =         0.00000000
  -V(xc)+E(xc)   XCENC  =       411.90304670
  PAW double counting   =     36608.90032030   -36436.55850015
  entropy T*S    EENTRO =        -0.00000000
  eigenvalues    EBANDS =     -2837.01082578
  atomic energy  EATOM  =      7593.39991119
  ---------------------------------------------------
  free energy    TOTEN  =      -382.27759697 eV

  energy without entropy =     -382.27759697  energy(sigma->0) =     -382.27759697


--------------------------------------------------------------------------------------------------------




----------------------------------------- Iteration    1(   8)  ---------------------------------------


    POTLOK:  cpu time    4.67: real time    4.70
    SETDIJ:  cpu time    3.03: real time    3.03
     EDDAV:  cpu time   15.30: real time   16.59
       DOS:  cpu time    0.05: real time    0.05
    CHARGE:  cpu time    5.28: real time    5.29
    MIXING:  cpu time    0.15: real time    0.15
    --------------------------------------------
      LOOP:  cpu time   28.48: real time   29.81

 eigenvalue-minimisations  :   768
 total energy-change (2. order) : 0.4068979E+01  (-0.1758199E+01)
 number of electron     166.0000000 magnetization       0.0000000
 augmentation part        4.8180692 magnetization      -0.0000197

 Broyden mixing:
  rms(total) = 0.93033E+00    rms(broyden)= 0.93030E+00
  rms(prec ) = 0.10233E+01
  weight for this iteration     100.00

 eigenvalues of (default mixing * dielectric matrix)
  average eigenvalue GAMMA=   1.4542
  2.6966  0.8330  0.8330

 Free energy of the ion-electron system (eV)
  ---------------------------------------------------
  alpha Z        PSCENC =        12.91687988
  Ewald energy   TEWEN  =     23339.30524205
  -Hartree energ DENC   =    -29229.68865131
  -exchange      EXHF   =         0.00000000
  -V(xc)+E(xc)   XCENC  =       420.11133210
  PAW double counting   =     71140.73397476   -70965.26122639
  entropy T*S    EENTRO =        -0.00000000
  eigenvalues    EBANDS =     -2689.72608042
  atomic energy  EATOM  =      7593.39991119
  ---------------------------------------------------
  free energy    TOTEN  =      -378.20861813 eV

  energy without entropy =     -378.20861813  energy(sigma->0) =     -378.20861813


--------------------------------------------------------------------------------------------------------




----------------------------------------- Iteration    1(   9)  ---------------------------------------


    POTLOK:  cpu time    4.65: real time    4.67
    SETDIJ:  cpu time    2.98: real time    2.99
     EDDAV:  cpu time   15.10: real time   16.30
       DOS:  cpu time    0.05: real time    0.05
    CHARGE:  cpu time    5.34: real time    5.36
    MIXING:  cpu time    0.09: real time    0.09
    --------------------------------------------
      LOOP:  cpu time   28.21: real time   29.46

 eigenvalue-minimisations  :   768
 total energy-change (2. order) : 0.1111519E+01  (-0.6533265E+00)
 number of electron     166.0000000 magnetization       0.0000000
 augmentation part        5.2647318 magnetization      -0.0000535

 Broyden mixing:
  rms(total) = 0.35347E+00    rms(broyden)= 0.35344E+00
  rms(prec ) = 0.39113E+00
  weight for this iteration     100.00

 eigenvalues of (default mixing * dielectric matrix)
  average eigenvalue GAMMA=   1.3101
  2.5345  1.1451  0.7804  0.7804

 Free energy of the ion-electron system (eV)
  ---------------------------------------------------
  alpha Z        PSCENC =        12.91687988
  Ewald energy   TEWEN  =     23339.30524205
  -Hartree energ DENC   =    -29240.92176639
  -exchange      EXHF   =         0.00000000
  -V(xc)+E(xc)   XCENC  =       422.44562776
  PAW double counting   =     82713.88953292   -82540.49115131
  entropy T*S    EENTRO =        -0.00000000
  eigenvalues    EBANDS =     -2677.64137489
  atomic energy  EATOM  =      7593.39991119
  ---------------------------------------------------
  free energy    TOTEN  =      -377.09709878 eV

  energy without entropy =     -377.09709878  energy(sigma->0) =     -377.09709878


--------------------------------------------------------------------------------------------------------




----------------------------------------- Iteration    1(  10)  ---------------------------------------


    POTLOK:  cpu time    4.65: real time    4.68
    SETDIJ:  cpu time    2.99: real time    3.00
     EDDAV:  cpu time   15.25: real time   16.43
       DOS:  cpu time    0.05: real time    0.05
    CHARGE:  cpu time    5.28: real time    5.28
    MIXING:  cpu time    0.23: real time    0.23
    --------------------------------------------
      LOOP:  cpu time   28.45: real time   29.67

 eigenvalue-minimisations  :   768
 total energy-change (2. order) : 0.2832771E-01  (-0.2947968E-01)
 number of electron     166.0000000 magnetization       0.0000000
 augmentation part        5.3402734 magnetization      -0.0000348

 Broyden mixing:
  rms(total) = 0.25435E+00    rms(broyden)= 0.25435E+00
  rms(prec ) = 0.29880E+00
  weight for this iteration     100.00

 eigenvalues of (default mixing * dielectric matrix)
  average eigenvalue GAMMA=   1.2752
  2.4591  1.5743  0.7461  0.7461  0.8506

 Free energy of the ion-electron system (eV)
  ---------------------------------------------------
  alpha Z        PSCENC =        12.91687988
  Ewald energy   TEWEN  =     23339.30524205
  -Hartree energ DENC   =    -29228.56792314
  -exchange      EXHF   =         0.00000000
  -V(xc)+E(xc)   XCENC  =       422.41112672
  PAW double counting   =     81244.40040557   -81071.39176520
  entropy T*S    EENTRO =        -0.00000000
  eigenvalues    EBANDS =     -2689.54264815
  atomic energy  EATOM  =      7593.39991119
  ---------------------------------------------------
  free energy    TOTEN  =      -377.06877108 eV

  energy without entropy =     -377.06877108  energy(sigma->0) =     -377.06877108


--------------------------------------------------------------------------------------------------------




----------------------------------------- Iteration    1(  11)  ---------------------------------------


    POTLOK:  cpu time    4.66: real time    4.68
    SETDIJ:  cpu time    2.96: real time    2.96
     EDDAV:  cpu time   15.08: real time   16.24
       DOS:  cpu time    0.06: real time    0.06
    CHARGE:  cpu time    5.41: real time    5.43
    MIXING:  cpu time    0.10: real time    0.10
    --------------------------------------------
      LOOP:  cpu time   28.28: real time   29.48

 eigenvalue-minimisations  :   768
 total energy-change (2. order) : 0.1163753E+00  (-0.1084517E-01)
 number of electron     166.0000000 magnetization       0.0000000
 augmentation part        5.3011292 magnetization      -0.0000211

 Broyden mixing:
  rms(total) = 0.12956E+00    rms(broyden)= 0.12956E+00
  rms(prec ) = 0.17177E+00
  weight for this iteration     100.00

 eigenvalues of (default mixing * dielectric matrix)
  average eigenvalue GAMMA=   1.4054
  2.5236  2.5236  1.0189  0.8478  0.8478  0.6708

 Free energy of the ion-electron system (eV)
  ---------------------------------------------------
  alpha Z        PSCENC =        12.91687988
  Ewald energy   TEWEN  =     23339.30524205
  -Hartree energ DENC   =    -29226.11952804
  -exchange      EXHF   =         0.00000000
  -V(xc)+E(xc)   XCENC  =       423.00175010
  PAW double counting   =     81669.57042469   -81496.40347409
  entropy T*S    EENTRO =        -0.00000000
  eigenvalues    EBANDS =     -2692.62360160
  atomic energy  EATOM  =      7593.39991119
  ---------------------------------------------------
  free energy    TOTEN  =      -376.95239580 eV

  energy without entropy =     -376.95239580  energy(sigma->0) =     -376.95239580


--------------------------------------------------------------------------------------------------------




----------------------------------------- Iteration    1(  12)  ---------------------------------------


    POTLOK:  cpu time    4.65: real time    4.68
    SETDIJ:  cpu time    2.99: real time    3.00
     EDDAV:  cpu time   15.18: real time   16.37
       DOS:  cpu time    0.05: real time    0.05
    CHARGE:  cpu time    5.43: real time    5.44
    MIXING:  cpu time    0.08: real time    0.08
    --------------------------------------------
      LOOP:  cpu time   28.39: real time   29.63

 eigenvalue-minimisations  :   768
 total energy-change (2. order) : 0.8013907E-01  (-0.1018955E-01)
 number of electron     166.0000000 magnetization       0.0000000
 augmentation part        5.2565103 magnetization      -0.0000353

 Broyden mixing:
  rms(total) = 0.69773E-01    rms(broyden)= 0.69770E-01
  rms(prec ) = 0.10345E+00
  weight for this iteration     100.00

 eigenvalues of (default mixing * dielectric matrix)
  average eigenvalue GAMMA=   1.4023
  2.7696  2.7696  0.9931  0.9931  0.8307  0.8307  0.6293

 Free energy of the ion-electron system (eV)
  ---------------------------------------------------
  alpha Z        PSCENC =        12.91687988
  Ewald energy   TEWEN  =     23339.30524205
  -Hartree energ DENC   =    -29222.04565011
  -exchange      EXHF   =         0.00000000
  -V(xc)+E(xc)   XCENC  =       423.61849712
  PAW double counting   =     81689.36550059   -81516.06335456
  entropy T*S    EENTRO =        -0.00000000
  eigenvalues    EBANDS =     -2697.36928291
  atomic energy  EATOM  =      7593.39991119
  ---------------------------------------------------
  free energy    TOTEN  =      -376.87225673 eV

  energy without entropy =     -376.87225673  energy(sigma->0) =     -376.87225673


--------------------------------------------------------------------------------------------------------




----------------------------------------- Iteration    1(  13)  ---------------------------------------


    POTLOK:  cpu time    4.66: real time    4.68
    SETDIJ:  cpu time    2.99: real time    2.99
     EDDAV:  cpu time   15.09: real time   16.25
       DOS:  cpu time    0.05: real time    0.05
    CHARGE:  cpu time    5.29: real time    5.29
    MIXING:  cpu time    0.19: real time    0.19
    --------------------------------------------
      LOOP:  cpu time   28.27: real time   29.44

 eigenvalue-minimisations  :   768
 total energy-change (2. order) : 0.2308173E-01  (-0.1507873E-02)
 number of electron     166.0000000 magnetization       0.0000000
 augmentation part        5.2525132 magnetization      -0.0000009

 Broyden mixing:
  rms(total) = 0.55152E-01    rms(broyden)= 0.55151E-01
  rms(prec ) = 0.81447E-01
  weight for this iteration     100.00

 eigenvalues of (default mixing * dielectric matrix)
  average eigenvalue GAMMA=   1.4061
  2.9112  2.9112  1.1070  1.1070  0.8484  0.8484  0.9044  0.6114

 Free energy of the ion-electron system (eV)
  ---------------------------------------------------
  alpha Z        PSCENC =        12.91687988
  Ewald energy   TEWEN  =     23339.30524205
  -Hartree energ DENC   =    -29216.28536206
  -exchange      EXHF   =         0.00000000
  -V(xc)+E(xc)   XCENC  =       423.87886024
  PAW double counting   =     81265.28485827   -81092.02272218
  entropy T*S    EENTRO =        -0.00000000
  eigenvalues    EBANDS =     -2703.32684240
  atomic energy  EATOM  =      7593.39991119
  ---------------------------------------------------
  free energy    TOTEN  =      -376.84917501 eV

  energy without entropy =     -376.84917501  energy(sigma->0) =     -376.84917501


--------------------------------------------------------------------------------------------------------




----------------------------------------- Iteration    1(  14)  ---------------------------------------


    POTLOK:  cpu time    4.67: real time    4.69
    SETDIJ:  cpu time    3.05: real time    3.05
     EDDAV:  cpu time   15.21: real time   16.36
       DOS:  cpu time    0.06: real time    0.06
    CHARGE:  cpu time    5.48: real time    5.47
    MIXING:  cpu time    0.09: real time    0.09
    --------------------------------------------
      LOOP:  cpu time   28.55: real time   29.73

 eigenvalue-minimisations  :   768
 total energy-change (2. order) : 0.1500842E-01  (-0.1964726E-02)
 number of electron     166.0000000 magnetization       0.0000000
 augmentation part        5.2602281 magnetization       0.0000288

 Broyden mixing:
  rms(total) = 0.42054E-01    rms(broyden)= 0.42053E-01
  rms(prec ) = 0.56776E-01
  weight for this iteration     100.00

 eigenvalues of (default mixing * dielectric matrix)
  average eigenvalue GAMMA=   1.4947
  3.8733  2.7066  1.8395  1.2050  1.0113  0.8441  0.8441  0.6338  0.4945

 Free energy of the ion-electron system (eV)
  ---------------------------------------------------
  alpha Z        PSCENC =        12.91687988
  Ewald energy   TEWEN  =     23339.30524205
  -Hartree energ DENC   =    -29206.26046260
  -exchange      EXHF   =         0.00000000
  -V(xc)+E(xc)   XCENC  =       424.16959889
  PAW double counting   =     80931.54361607   -80758.38378157
  entropy T*S    EENTRO =        -0.00000000
  eigenvalues    EBANDS =     -2713.52517050
  atomic energy  EATOM  =      7593.39991119
  ---------------------------------------------------
  free energy    TOTEN  =      -376.83416658 eV

  energy without entropy =     -376.83416658  energy(sigma->0) =     -376.83416658


--------------------------------------------------------------------------------------------------------




----------------------------------------- Iteration    1(  15)  ---------------------------------------


    POTLOK:  cpu time    4.67: real time    4.69
    SETDIJ:  cpu time    2.80: real time    2.99
     EDDAV:  cpu time   15.10: real time   16.27
       DOS:  cpu time    0.04: real time    0.04
    CHARGE:  cpu time    5.47: real time    5.47
    MIXING:  cpu time    0.09: real time    0.09
    --------------------------------------------
      LOOP:  cpu time   28.18: real time   29.56

 eigenvalue-minimisations  :   768
 total energy-change (2. order) : 0.2466828E-02  (-0.6132495E-03)
 number of electron     166.0000000 magnetization       0.0000000
 augmentation part        5.2598026 magnetization      -0.0000022

 Broyden mixing:
  rms(total) = 0.28818E-01    rms(broyden)= 0.28817E-01
  rms(prec ) = 0.39835E-01
  weight for this iteration     100.00

 eigenvalues of (default mixing * dielectric matrix)
  average eigenvalue GAMMA=   1.5121
  4.5221  2.5232  2.0138  1.2563  1.0290  1.0290  0.8239  0.8239  0.6277  0.4723

 Free energy of the ion-electron system (eV)
  ---------------------------------------------------
  alpha Z        PSCENC =        12.91687988
  Ewald energy   TEWEN  =     23339.30524205
  -Hartree energ DENC   =    -29199.76325548
  -exchange      EXHF   =         0.00000000
  -V(xc)+E(xc)   XCENC  =       424.30868451
  PAW double counting   =     80883.24383229   -80710.10412632
  entropy T*S    EENTRO =        -0.00000000
  eigenvalues    EBANDS =     -2720.13886788
  atomic energy  EATOM  =      7593.39991119
  ---------------------------------------------------
  free energy    TOTEN  =      -376.83169975 eV

  energy without entropy =     -376.83169975  energy(sigma->0) =     -376.83169975


--------------------------------------------------------------------------------------------------------




----------------------------------------- Iteration    1(  16)  ---------------------------------------


    POTLOK:  cpu time    4.67: real time    4.69
    SETDIJ:  cpu time    2.98: real time    2.98
     EDDAV:  cpu time   15.34: real time   16.47
       DOS:  cpu time    0.05: real time    0.05
    CHARGE:  cpu time    5.41: real time    5.41
    MIXING:  cpu time    0.15: real time    0.15
    --------------------------------------------
      LOOP:  cpu time   28.61: real time   29.76

 eigenvalue-minimisations  :   768
 total energy-change (2. order) :-0.4566866E-02  (-0.1771261E-03)
 number of electron     166.0000000 magnetization       0.0000000
 augmentation part        5.2557100 magnetization       0.0000070

 Broyden mixing:
  rms(total) = 0.20772E-01    rms(broyden)= 0.20771E-01
  rms(prec ) = 0.29157E-01
  weight for this iteration     100.00

 eigenvalues of (default mixing * dielectric matrix)
  average eigenvalue GAMMA=   1.6056
  5.2854  2.4245  2.4245  1.4088  1.4088  1.0965  0.8468  0.8468  0.8249  0.6263
  0.4687

 Free energy of the ion-electron system (eV)
  ---------------------------------------------------
  alpha Z        PSCENC =        12.91687988
  Ewald energy   TEWEN  =     23339.30524205
  -Hartree energ DENC   =    -29193.48320024
  -exchange      EXHF   =         0.00000000
  -V(xc)+E(xc)   XCENC  =       424.35079730
  PAW double counting   =     80967.28252408   -80794.11574795
  entropy T*S    EENTRO =        -0.00000000
  eigenvalues    EBANDS =     -2726.49267295
  atomic energy  EATOM  =      7593.39991119
  ---------------------------------------------------
  free energy    TOTEN  =      -376.83626662 eV

  energy without entropy =     -376.83626662  energy(sigma->0) =     -376.83626662


--------------------------------------------------------------------------------------------------------




----------------------------------------- Iteration    1(  17)  ---------------------------------------


    POTLOK:  cpu time    4.68: real time    4.70
    SETDIJ:  cpu time    2.98: real time    2.99
     EDDAV:  cpu time   15.09: real time   16.25
       DOS:  cpu time    0.05: real time    0.05
    CHARGE:  cpu time    5.42: real time    5.43
    MIXING:  cpu time    0.18: real time    0.18
    --------------------------------------------
      LOOP:  cpu time   28.42: real time   29.60

 eigenvalue-minimisations  :   768
 total energy-change (2. order) :-0.9137547E-02  (-0.2911973E-03)
 number of electron     166.0000000 magnetization       0.0000000
 augmentation part        5.2602931 magnetization      -0.0000058

 Broyden mixing:
  rms(total) = 0.92393E-02    rms(broyden)= 0.92388E-02
  rms(prec ) = 0.13815E-01
  weight for this iteration     100.00

 eigenvalues of (default mixing * dielectric matrix)
  average eigenvalue GAMMA=   1.6842
  6.2328  2.7451  2.7451  1.5980  1.3637  1.0299  1.0299  0.8394  0.8394  0.6930
  0.6254  0.4683

 Free energy of the ion-electron system (eV)
  ---------------------------------------------------
  alpha Z        PSCENC =        12.91687988
  Ewald energy   TEWEN  =     23339.30524205
  -Hartree energ DENC   =    -29182.79734924
  -exchange      EXHF   =         0.00000000
  -V(xc)+E(xc)   XCENC  =       424.30873155
  PAW double counting   =     81041.85070391   -80868.67856382
  entropy T*S    EENTRO =        -0.00000000
  eigenvalues    EBANDS =     -2737.15095970
  atomic energy  EATOM  =      7593.39991119
  ---------------------------------------------------
  free energy    TOTEN  =      -376.84540417 eV

  energy without entropy =     -376.84540417  energy(sigma->0) =     -376.84540417


--------------------------------------------------------------------------------------------------------




----------------------------------------- Iteration    1(  18)  ---------------------------------------


    POTLOK:  cpu time    4.68: real time    4.70
    SETDIJ:  cpu time    2.96: real time    2.97
     EDDAV:  cpu time   15.36: real time   16.53
       DOS:  cpu time    0.05: real time    0.05
    CHARGE:  cpu time    5.36: real time    5.37
    MIXING:  cpu time    0.18: real time    0.18
    --------------------------------------------
      LOOP:  cpu time   28.59: real time   29.79

 eigenvalue-minimisations  :   768
 total energy-change (2. order) :-0.4478761E-02  (-0.8029089E-04)
 number of electron     166.0000000 magnetization       0.0000000
 augmentation part        5.2625151 magnetization       0.0000047

 Broyden mixing:
  rms(total) = 0.85686E-02    rms(broyden)= 0.85685E-02
  rms(prec ) = 0.11018E-01
  weight for this iteration     100.00

 eigenvalues of (default mixing * dielectric matrix)
[...]
 12.597   0.000  21.218   0.000  -0.005   0.000  -0.006   0.000   0.008   0.000  -0.009   0.000  -0.011   0.000   0.014   0.000
 21.218   0.000  35.738   0.000  -0.008   0.000  -0.010   0.000   0.013   0.000  -0.015   0.000  -0.018   0.000   0.023   0.000
 -0.005   0.000  -0.008   0.000  -3.555   0.000  -0.001   0.000   0.000   0.000  -6.391   0.000  -0.002   0.000   0.000   0.000
 -0.006   0.000  -0.010   0.000  -0.001   0.000  -3.555   0.000   0.000   0.000  -0.002   0.000  -6.391   0.000   0.001   0.000
  0.008   0.000   0.013   0.000   0.000   0.000   0.000   0.000  -3.556   0.000   0.000   0.000   0.001   0.000  -6.392   0.000
 -0.009   0.000  -0.015   0.000  -6.391   0.000  -0.002   0.000   0.000   0.000 -11.465   0.000  -0.003   0.000   0.000   0.000
 -0.011   0.000  -0.018   0.000  -0.002   0.000  -6.391   0.000   0.001   0.000  -0.003   0.000 -11.465   0.000   0.002   0.000
  0.014   0.000   0.023   0.000   0.000   0.000   0.001   0.000  -6.392   0.000   0.000   0.000   0.002   0.000 -11.468   0.000
 pseudopotential strength for first ion, spin component:           2
 12.597   0.000  21.218   0.000  -0.005   0.000  -0.006   0.000   0.008   0.000  -0.009   0.000  -0.011   0.000   0.014   0.000
 21.218   0.000  35.738   0.000  -0.008   0.000  -0.010   0.000   0.013   0.000  -0.015   0.000  -0.018   0.000   0.023   0.000
 -0.005   0.000  -0.008   0.000  -3.555   0.000  -0.001   0.000   0.000   0.000  -6.391   0.000  -0.002   0.000   0.000   0.000
 -0.006   0.000  -0.010   0.000  -0.001   0.000  -3.555   0.000   0.000   0.000  -0.002   0.000  -6.391   0.000   0.001   0.000
  0.008   0.000   0.013   0.000   0.000   0.000   0.000   0.000  -3.556   0.000   0.000   0.000   0.001   0.000  -6.392   0.000
 -0.009   0.000  -0.015   0.000  -6.391   0.000  -0.002   0.000   0.000   0.000 -11.465   0.000  -0.003   0.000   0.000   0.000
 -0.011   0.000  -0.018   0.000  -0.002   0.000  -6.391   0.000   0.001   0.000  -0.003   0.000 -11.465   0.000   0.002   0.000
  0.014   0.000   0.023   0.000   0.000   0.000   0.001   0.000  -6.392   0.000   0.000   0.000   0.002   0.000 -11.468   0.000
 total augmentation occupancy for first ion, spin component:           1
  1.766  -0.552  -0.364  -0.400   0.312   0.133   0.158  -0.145
 -0.552   0.667   0.174   0.208  -0.208  -0.047  -0.065   0.080
 -0.364   0.174   1.998   1.163   0.055  -0.293  -0.382   0.026
 -0.400   0.208   1.163   2.018  -0.502  -0.381  -0.318   0.199
  0.312  -0.208   0.055  -0.502   3.277   0.026   0.200  -0.689
  0.133  -0.047  -0.293  -0.381   0.026   0.172   0.050  -0.030
  0.158  -0.065  -0.382  -0.318   0.200   0.050   0.189  -0.054
 -0.145   0.080   0.026   0.199  -0.689  -0.030  -0.054   0.234
 total augmentation occupancy for first ion, spin component:           2
  0.000  -0.000  -0.000  -0.000  -0.000   0.000  -0.000   0.000
 -0.000  -0.000   0.000  -0.000   0.000   0.000   0.000  -0.000
 -0.000   0.000  -0.000  -0.000   0.000   0.000   0.000  -0.000
 -0.000  -0.000  -0.000  -0.000  -0.000   0.000   0.000   0.000
 -0.000   0.000   0.000  -0.000   0.000  -0.000   0.000  -0.000
  0.000   0.000   0.000   0.000  -0.000  -0.000  -0.000   0.000
 -0.000   0.000   0.000   0.000   0.000  -0.000  -0.000  -0.000
  0.000  -0.000  -0.000   0.000  -0.000   0.000  -0.000   0.000


------------------------ aborting loop because EDIFF is reached ----------------------------------------


    CHARGE:  cpu time    5.34: real time    5.34
    FORLOC:  cpu time    0.58: real time    0.58
    FORNL :  cpu time   20.50: real time   20.51
    STRESS:  cpu time   64.57: real time   64.58
    FORCOR:  cpu time    4.25: real time    4.27
    FORHAR:  cpu time    1.00: real time    1.00
    MIXING:  cpu time    0.21: real time    0.21
    OFIELD:  cpu time    0.00: real time    0.00

  FORCE on cell =-STRESS in cart. coord.  units (eV):
  Direction    XX          YY          ZZ          XY          YZ          ZX
  --------------------------------------------------------------------------------------
  Alpha Z    12.91688    12.91688    12.91688
  Ewald   11233.59930  5589.22146  6516.47002   392.56097 -1529.38370   886.62530
  Hartree 12571.89222  7808.71836  8789.94763   100.21318 -1420.15803   710.84647
  E(xc)    -688.81068  -691.40352  -692.06392     1.44198    -0.02139     0.64714
  Local  -26174.34985-15803.40771-17732.15908  -470.19344  2949.68378 -1598.88873
  n-local   -28.37607   -28.48390   -31.87166     3.37296    -0.59489    -1.12960
  augment    82.53588    84.41006    83.36198     1.39423     0.64597     0.61690
  Kinetic  2974.88476  3013.73577  3039.30869   -29.81266    -1.58805     0.78255
  Fock        0.00000     0.00000     0.00000     0.00000     0.00000     0.00000
  -------------------------------------------------------------------------------------
  Total     -15.70756   -14.29259   -14.08945    -1.02278    -1.41631    -0.49998
  in kB      -3.14579    -2.86241    -2.82173    -0.20483    -0.28365    -0.10013
  external pressure =       -2.94 kB  Pullay stress =        0.00 kB


 VOLUME and BASIS-vectors are now :
 -----------------------------------------------------------------------------
  energy-cutoff  :      700.00
  volume of cell :     8000.00
      direct lattice vectors                 reciprocal lattice vectors
    20.000000000  0.000000000  0.000000000     0.050000000  0.000000000  0.000000000
     0.000000000 20.000000000  0.000000000     0.000000000  0.050000000  0.000000000
     0.000000000  0.000000000 20.000000000     0.000000000  0.000000000  0.050000000

  length of vectors
    20.000000000 20.000000000 20.000000000     0.050000000  0.050000000  0.050000000


 FORCES acting on ions
    electron-ion (+dipol)            ewald-force                    non-local-force                 convergence-correction
 -----------------------------------------------------------------------------------------------
   0.306E+03 -.319E+02 -.116E+03   -.311E+03 0.350E+02 0.120E+03   0.462E+01 -.297E+01 -.365E+01   0.448E-04 0.436E-04 0.827E-05
   0.875E+02 -.932E+01 0.334E+03   -.881E+02 0.959E+01 -.336E+03   0.619E+00 -.289E+00 0.188E+01   0.122E-04 -.168E-04 -.369E-04
   0.672E+02 0.803E+02 0.319E+03   -.693E+02 -.823E+02 -.325E+03   0.204E+01 0.200E+01 0.637E+01   0.349E-04 -.342E-04 0.689E-04
   0.282E+01 -.318E+03 0.305E+02   -.306E+01 0.325E+03 -.300E+02   0.256E+00 -.694E+01 -.453E+00   0.249E-04 -.823E-04 0.232E-04
   0.358E+02 -.326E+03 0.105E+03   -.362E+02 0.328E+03 -.106E+03   0.323E+00 -.184E+01 0.651E+00   0.198E-04 0.227E-04 -.202E-04
   0.801E+02 -.208E+03 0.264E+03   -.806E+02 0.209E+03 -.265E+03   0.519E+00 -.118E+01 0.145E+01   0.783E-05 0.401E-04 -.635E-04
   0.742E+02 0.268E+03 -.219E+03   -.746E+02 -.269E+03 0.220E+03   0.373E+00 0.153E+01 -.148E+01   0.131E-05 -.401E-04 0.183E-04
   0.150E+03 0.256E+03 -.164E+03   -.153E+03 -.261E+03 0.168E+03   0.370E+01 0.482E+01 -.395E+01   0.278E-04 0.553E-04 -.527E-04
   -.227E+03 0.123E+03 -.137E+03   0.232E+03 -.124E+03 0.140E+03   -.536E+01 0.118E+01 -.284E+01   -.367E-04 0.489E-04 -.745E-04
   -.258E+03 0.143E+03 -.181E+03   0.259E+03 -.145E+03 0.183E+03   -.128E+01 0.130E+01 -.172E+01   0.304E-04 0.159E-04 -.393E-04
   -.338E+03 -.697E+02 -.860E+00   0.340E+03 0.702E+02 0.776E+00   -.197E+01 -.533E+00 0.596E-01   0.416E-04 0.174E-04 -.788E-05
   -.258E+03 -.192E+03 0.137E+03   0.260E+03 0.194E+03 -.138E+03   -.160E+01 -.124E+01 0.770E+00   0.181E-04 0.322E-04 -.339E-04
   -.182E+03 -.214E+03 0.187E+03   0.185E+03 0.219E+03 -.191E+03   -.349E+01 -.515E+01 0.410E+01   -.693E-04 -.579E-04 0.171E-04
   -.266E+03 0.636E+02 -.921E+02   0.271E+03 -.656E+02 0.951E+02   -.496E+01 0.197E+01 -.297E+01   -.104E-03 -.460E-05 -.390E-04
   -.315E+03 0.612E+02 -.112E+03   0.317E+03 -.610E+02 0.113E+03   -.240E+01 -.148E+00 -.415E+00   -.364E-04 -.363E-04 0.130E-04
   -.122E+03 0.232E+03 -.238E+03   0.123E+03 -.234E+03 0.240E+03   -.661E+00 0.139E+01 -.157E+01   0.333E-04 -.499E-04 0.274E-04
   0.333E+03 -.330E+02 -.117E+03   -.339E+03 0.321E+02 0.118E+03   0.699E+01 0.880E+00 -.679E+00   -.264E-04 0.190E-04 0.406E-04
   0.127E+03 -.219E+03 -.262E+03   -.127E+03 0.220E+03 0.264E+03   0.463E+00 -.170E+01 -.195E+01   -.314E-04 0.448E-04 0.434E-04
   -.750E+02 -.256E+03 -.247E+03   0.755E+02 0.258E+03 0.248E+03   -.552E+00 -.156E+01 -.158E+01   0.106E-04 0.371E-04 0.249E-04
   -.159E+03 -.237E+03 -.197E+03   0.163E+03 0.242E+03 0.201E+03   -.458E+01 -.496E+01 -.423E+01   0.206E-04 -.334E-04 -.268E-04
   0.228E+03 -.101E+03 -.162E+03   -.231E+03 0.106E+03 0.168E+03   0.287E+01 -.464E+01 -.571E+01   0.318E-04 0.270E-04 0.866E-05
   0.265E+03 -.127E+03 -.203E+03   -.266E+03 0.128E+03 0.205E+03   0.115E+01 -.195E+01 -.253E+01   -.235E-04 0.472E-05 -.179E-05
   0.147E+03 0.267E+03 0.195E+03   -.150E+03 -.273E+03 -.200E+03   0.284E+01 0.558E+01 0.482E+01   0.321E-04 -.182E-04 -.470E-04
   0.242E+03 0.225E+03 0.145E+03   -.244E+03 -.227E+03 -.146E+03   0.168E+01 0.162E+01 0.117E+01   -.277E-04 -.593E-04 -.557E-04
   0.340E+03 0.975E+02 0.426E+01   -.343E+03 -.985E+02 -.475E+01   0.279E+01 0.115E+01 0.553E+00   -.492E-04 -.533E-04 -.841E-05
   0.451E+02 0.806E+02 -.636E+02   -.487E+02 -.844E+02 0.665E+02   0.363E+01 0.381E+01 -.289E+01   -.198E-05 -.211E-04 0.139E-04
   -.418E+02 0.695E+02 -.756E+02   0.442E+02 -.731E+02 0.798E+02   -.243E+01 0.361E+01 -.418E+01   0.124E-04 -.255E-04 0.204E-04
   -.993E+02 0.278E+02 -.485E+02   0.105E+03 -.276E+02 0.498E+02   -.582E+01 -.256E+00 -.125E+01   0.108E-04 -.651E-05 0.790E-06
   -.409E+02 0.149E+03 0.160E+02   0.427E+02 -.157E+03 -.127E+02   -.180E+01 0.757E+01 -.335E+01   -.567E-05 0.281E-04 0.601E-05
   0.102E+03 -.230E+02 -.523E+02   -.107E+03 0.226E+02 0.536E+02   0.581E+01 0.387E+00 -.123E+01   -.192E-05 0.846E-05 0.848E-05
   0.796E+02 0.683E+02 -.319E+02   -.854E+02 -.685E+02 0.306E+02   0.584E+01 0.151E+00 0.131E+01   0.368E-05 0.618E-05 -.798E-05
   0.266E+02 -.664E+02 0.814E+02   -.281E+02 0.701E+02 -.859E+02   0.154E+01 -.372E+01 0.449E+01   -.255E-05 0.206E-04 -.291E-04
   0.585E+01 -.110E+03 0.894E+01   -.581E+01 0.116E+03 -.787E+01   -.366E-01 -.589E+01 -.107E+01   0.269E-05 0.239E-04 -.853E-05
   -.144E+02 -.102E+03 -.343E+02   0.160E+02 0.104E+03 0.396E+02   -.155E+01 -.210E+01 -.538E+01   0.354E-05 -.150E-04 0.377E-05
   -.101E+03 0.259E+02 0.116E+03   0.108E+03 -.236E+02 -.121E+03   -.652E+01 -.228E+01 0.485E+01   -.146E-04 0.111E-04 0.216E-04
   -.915E+02 0.385E+02 -.535E+02   0.948E+02 -.417E+02 0.573E+02   -.330E+01 0.324E+01 -.376E+01   0.647E-05 -.779E-05 0.432E-05
   -.661E+02 -.714E+02 0.547E+02   0.685E+02 0.756E+02 -.581E+02   -.246E+01 -.426E+01 0.345E+01   0.140E-04 0.122E-04 -.103E-04
   0.173E+02 0.711E+02 0.887E+02   -.173E+02 -.770E+02 -.895E+02   0.344E-01 0.595E+01 0.734E+00   0.738E-05 -.383E-05 0.114E-04
   0.404E+01 0.908E+02 0.778E+02   -.373E+00 -.938E+02 -.815E+02   -.362E+01 0.304E+01 0.380E+01   0.542E-05 0.294E-05 -.319E-05
   0.604E+02 0.773E+02 0.573E+02   -.627E+02 -.816E+02 -.609E+02   0.230E+01 0.430E+01 0.360E+01   -.113E-04 -.123E-04 -.917E-05
   -.105E+03 -.197E+02 -.451E+01   0.111E+03 0.206E+02 0.498E+01   -.593E+01 -.949E+00 -.467E+00   0.293E-04 0.923E-05 -.202E-05
   -.839E+02 -.641E+02 -.382E+02   0.898E+02 0.644E+02 0.369E+02   -.591E+01 -.253E+00 0.130E+01   -.250E-05 -.133E-04 -.849E-05
   0.285E+02 0.211E+02 0.104E+03   -.301E+02 -.236E+02 -.110E+03   0.152E+01 0.241E+01 0.526E+01   -.199E-05 -.302E-05 -.265E-04
   -.454E+02 -.785E+02 -.700E+02   0.490E+02 0.822E+02 0.730E+02   -.360E+01 -.375E+01 -.305E+01   -.226E-05 0.144E-04 0.127E-04
   0.960E+02 -.332E+02 -.547E+02   -.994E+02 0.365E+02 0.585E+02   0.356E+01 -.314E+01 -.377E+01   -.793E-05 0.300E-05 0.108E-04
   0.106E+03 0.255E+02 -.223E+01   -.112E+03 -.266E+02 0.257E+01   0.595E+01 0.111E+01 -.288E+00   -.274E-04 -.164E-04 0.915E-06
   -.230E+02 -.759E+02 0.739E+02   0.196E+02 0.791E+02 -.777E+02   0.343E+01 -.318E+01 0.379E+01   -.583E-05 -.897E-05 0.582E-06
   0.431E+02 -.660E+02 -.806E+02   -.456E+02 0.694E+02 0.849E+02   0.248E+01 -.344E+01 -.432E+01   -.108E-04 0.210E-04 0.231E-04
   0.291E+02 -.139E+03 0.224E+03   -.241E+02 0.127E+03 -.209E+03   -.499E+01 0.121E+02 -.147E+02   0.627E-04 -.130E-03 0.115E-03
   0.226E+03 0.171E+03 0.709E+02   -.201E+03 -.170E+03 -.754E+02   -.247E+02 -.115E+01 0.477E+01   0.165E-03 0.298E-04 -.479E-04
   -.428E+02 0.234E+03 -.159E+03   0.345E+02 -.223E+03 0.146E+03   0.837E+01 -.114E+02 0.131E+02   0.255E-04 0.137E-03 -.140E-03
   0.346E+02 -.199E+03 -.199E+03   -.256E+02 0.189E+03 0.186E+03   -.912E+01 0.918E+01 0.127E+02   0.628E-04 -.816E-04 -.810E-04
   -.253E+03 -.953E+02 0.679E+02   0.233E+03 0.930E+02 -.696E+02   0.197E+02 0.232E+01 0.169E+01   -.159E-03 -.977E-04 0.137E-04
   -.124E+03 0.405E+03 0.423E+03   0.847E+02 -.387E+03 -.425E+03   0.393E+02 -.172E+02 0.256E+01   -.209E-04 0.145E-03 0.127E-03
   -.848E+02 0.131E+03 0.232E+03   0.839E+02 -.128E+03 -.228E+03   0.496E+00 -.308E+01 -.381E+01   0.235E-03 -.412E-04 -.809E-04
 -----------------------------------------------------------------------------------------------
   -.265E+02 0.185E+02 0.680E-01   -.327E-12 0.483E-12 -.199E-12   0.265E+02 -.185E+02 -.645E-01   0.358E-03 -.886E-04 -.275E-03
 
 
 POSITION                                       TOTAL-FORCE (eV/Angst)
 -----------------------------------------------------------------------------------
      7.24231      9.77330     11.28348        -0.337464      0.092947      0.163446
      8.75875     11.31222      6.55140        -0.014434     -0.023223     -0.004687
      9.11624     10.48468      7.61029         0.001166     -0.016371     -0.004758
      9.47459     12.30603      8.99730         0.012531      0.008122      0.018572
      9.11904     13.19266      7.98704         0.001632      0.014404      0.015183
      8.75715     12.69444      6.73519         0.006241     -0.000803      0.009059
     10.46158      6.59100     13.49490        -0.011653     -0.008401      0.009018
      9.94203      7.43809     12.52376         0.025038      0.022782     -0.025884
     12.04547      8.38666     12.11872        -0.019960     -0.003471      0.003554
     12.61928      7.55238     13.08448         0.000649      0.014558     -0.009985
     14.79299     10.57118     10.69264        -0.024820      0.016483     -0.023844
     14.01643     11.32257      9.80881         0.029376     -0.008153      0.018804
     12.65158     11.07272      9.73048        -0.081918      0.003855     -0.021061
     12.79043      9.38554     11.34657        -0.033051     -0.003967     -0.003199
     14.16878      9.59490     11.46294        -0.016622     -0.003628      0.004202
     11.82695      6.64488     13.78060        -0.020391      0.001151     -0.008139
      5.86694      9.53439     11.36602         0.749802     -0.000058     -0.176464
      8.15819     12.44233     13.81164         0.044644     -0.014832     -0.032468
      9.52399     12.52132     13.53212        -0.018097     -0.001700      0.002660
     10.05904     11.71816     12.53361        -0.049974      0.003553      0.023977
      7.96508     10.76003     12.08522        -0.102172     -0.258540     -0.223917
      7.38092     11.55121     13.07965        -0.220764     -0.170812     -0.116377
      7.45796      8.11597      9.64469        -0.182568      0.017885      0.058149
      6.09730      7.83470      9.68863         0.064741      0.023796      0.006050
      5.28440      8.55710     10.56432         0.058507      0.071759      0.061691
      9.79795      5.90212     14.01497        -0.000364     -0.005293      0.004068
     12.26685      5.99367     14.53463        -0.000373     -0.005257      0.004568
     13.68484      7.61538     13.29576        -0.002442     -0.000919      0.002046
     10.84507      7.24677      9.22597         0.035015     -0.027888     -0.006457
      6.31582     11.46138     13.28407        -0.008755      0.033931      0.033591
      8.88327      7.42377     12.27295         0.001120     -0.031054      0.018097
      8.47853     13.36665      5.92453        -0.000365      0.006183     -0.003180
      9.12855     14.26265      8.19005         0.005489      0.001903     -0.000176
      9.76183     12.67176      9.98145         0.010080      0.018707     -0.010237
     11.38256      8.36174      8.29610         0.014606     -0.006425     -0.034408
     14.75349      8.99278     12.15530         0.001180      0.000682      0.000694
     14.45552     12.09620      9.18096        -0.001982      0.002217     -0.005517
      9.11405      9.40258      7.49376         0.011786     -0.005226     -0.022361
      8.12287      7.57771      8.97051         0.046590      0.064067      0.051391
      5.68876      7.06123      9.04041        -0.012120     -0.011151     -0.007355
     15.86530     10.74076     10.77851         0.001652      0.002730      0.000698
     11.11794     11.75383     12.28812        -0.010218     -0.014692     -0.011664
      8.48240     10.86572      5.59722        -0.002718     -0.000236      0.000976
     10.17895     13.19691     14.08003        -0.000652      0.005698      0.003473
      5.25320     10.11370     12.05309         0.153707      0.064282      0.027557
      4.21445      8.36275     10.62101         0.010389      0.052645      0.047358
     12.01813     11.63958      9.05085         0.012454      0.002118     -0.006489
      7.70887     13.05934     14.58823        -0.022087     -0.008770     -0.003934
      9.48490     10.95884      8.82805         0.010641      0.082721     -0.100927
      8.03610      9.06122     10.42169         0.233084      0.356923      0.260014
     10.70414      8.32170     11.83465         0.112002     -0.085875      0.091701
      9.30896     10.85100     11.80824        -0.144448     -0.240633     -0.187544
     12.02768     10.13012     10.47953         0.116925      0.016487     -0.005278
     10.61480      8.11252      8.84309        -0.034763      0.058294      0.082928
     10.01771      9.61740     10.38685        -0.395874     -0.103506      0.032786
 -----------------------------------------------------------------------------------
    total drift:                                0.006111     -0.003399      0.003236


--------------------------------------------------------------------------------------------------------



  FREE ENERGIE OF THE ION-ELECTRON SYSTEM (eV)
  ---------------------------------------------------
  free  energy   TOTEN  =      -376.86316871 eV

  energy  without entropy=     -376.86316871  energy(sigma->0) =     -376.86316871
 


--------------------------------------------------------------------------------------------------------


    POTLOK:  cpu time    7.86: real time    7.88


--------------------------------------------------------------------------------------------------------


 writing wavefunctions
     LOOP+:  cpu time 1052.81: real time 1089.58
    4ORBIT:  cpu time    0.00: real time    0.00

 total amount of memory used by VASP on root node   877132. kBytes
========================================================================

   base      :      30000. kBytes
   nonlr-proj:      19361. kBytes
   fftplans  :     269516. kBytes
   grid      :     534988. kBytes
   one-center:       1710. kBytes
   wavefun   :      21557. kBytes
 
  
  
 General timing and accounting informations for this job:
 ========================================================
  
                  Total CPU time used (sec):     1316.407
                            User time (sec):     1162.638
                          System time (sec):      153.769
                         Elapsed time (sec):     1357.237
  
                   Maximum memory used (kb):     1489856.
                   Average memory used (kb):           0.
  
                          Minor page faults:      7036885
                          Major page faults:            0
                 Voluntary context switches:       280005
