<?xml version="1.0" encoding="ISO-8859-1"?>
<modeling>
 <generator>
  <i name="program" type="string">vasp </i>
  <i name="version" type="string">5.3.5  </i>
  <i name="subversion" type="string">31Mar14 (build Apr 08 2014 12:00:03) complex                          parallel </i>
  <i name="platform" type="string">NSC-NSCPATCH-BUILD02 </i>
  <i name="date" type="string">2017 03 15 </i>
  <i name="time" type="string">18:51:14 </i>
 </generator>
 <incar>
  <i type="string" name="SYSTEM"> c2_oh2_ruthenium_mol</i>
  <i type="int" name="ISTART">     0</i>
  <i type="string" name="PREC">accurate</i>
  <i type="int" name="IALGO">    38</i>
  <i type="logical" name="ADDGRID"> T  </i>
  <i type="int" name="ISPIN">     2</i>
  <i name="BMIX">      2.00000000</i>
  <i type="int" name="ICHARG">     2</i>
  <i name="EDIFF">      0.00001000</i>
  <i name="EDIFFG">     -0.01000000</i>
  <i name="ENCUT">    700.00000000</i>
  <i name="POTIM">      0.50000000</i>
  <i name="NUPDOWN">      0.00000000</i>
  <i name="NELECT">    166.00000000</i>
  <i type="string" name="LREAL"> Auto</i>
  <i name="TIME">      0.05000000</i>
  <i type="int" name="ISMEAR">     0</i>
  <i name="SIGMA">      0.01000000</i>
  <i type="int" name="ICORELEVEL">     2</i>
  <i type="int" name="CLNT">     1</i>
  <i type="int" name="CLN">     1</i>
  <i type="int" name="INCAR     ">     0</i>
  <i name="CLZ">      0.50000000</i>
 </incar>
 <kpoints>
  <generation param="Monkhorst-Pack">
   <v type="int" name="divisions">       1        1        1 </v>
   <v name="usershift">      0.00000000       0.00000000       0.00000000 </v>
   <v name="genvec1">      1.00000000       0.00000000       0.00000000 </v>
   <v name="genvec2">      0.00000000       1.00000000       0.00000000 </v>
   <v name="genvec3">      0.00000000       0.00000000       1.00000000 </v>
   <v name="shift">      0.00000000       0.00000000       0.00000000 </v>
  </generation>
  <varray name="kpointlist" >
   <v>       0.00000000       0.00000000       0.00000000 </v>
  </varray>
  <varray name="weights" >
   <v>       1.00000000 </v>
  </varray>
 </kpoints>
 <parameters>
  <separator name="general" >
   <i type="string" name="SYSTEM">c2_oh2_ruthenium_mol</i>
   <i type="logical" name="LCOMPAT"> F  </i>
  </separator>
  <separator name="electronic" >
   <i type="string" name="PREC">accura</i>
   <i name="ENMAX">    700.00000000</i>
   <i name="ENAUG">    946.76800000</i>
   <i name="EDIFF">      0.00001000</i>
   <i type="int" name="IALGO">    38</i>
   <i type="int" name="IWAVPR">    10</i>
   <i type="int" name="NBANDS">   128</i>
   <i name="NELECT">    166.00000000</i>
   <i type="int" name="TURBO">     0</i>
   <i type="int" name="IRESTART">     0</i>
   <i type="int" name="NREBOOT">     0</i>
   <i type="int" name="NMIN">     0</i>
   <i name="EREF">      0.00000000</i>
   <separator name="electronic smearing" >
    <i type="int" name="ISMEAR">     0</i>
    <i name="SIGMA">      0.01000000</i>
    <i name="KSPACING">      0.50000000</i>
    <i type="logical" name="KGAMMA"> T  </i>
   </separator>
   <separator name="electronic projectors" >
    <i type="logical" name="LREAL"> T  </i>
    <v name="ROPT">     -0.00025000     -0.00025000     -0.00025000     -0.00025000     -0.00025000     -0.00025000</v>
    <i type="int" name="LMAXPAW">  -100</i>
    <i type="int" name="LMAXMIX">     2</i>
    <i type="logical" name="NLSPLINE"> F  </i>
   </separator>
   <separator name="electronic startup" >
    <i type="int" name="ISTART">     0</i>
    <i type="int" name="ICHARG">     2</i>
    <i type="int" name="INIWAV">     1</i>
   </separator>
   <separator name="electronic spin" >
    <i type="int" name="ISPIN">     2</i>
    <i type="logical" name="LNONCOLLINEAR"> F  </i>
    <v name="MAGMOM">      0.00000000      0.00000000      0.00000000      0.00000000      0.00000000      0.00000000      0.00000000      0.00000000      0.00000000      0.00000000      0.00000000      0.00000000      0.00000000      0.00000000      0.00000000      0.00000000      0.00000000      0.00000000      0.00000000      0.00000000
      0.00000000      0.00000000      0.00000000      0.00000000      0.00000000      0.00000000      0.00000000      0.00000000      0.00000000      0.00000000      0.00000000      0.00000000      0.00000000      0.00000000      0.00000000      0.00000000      0.00000000      0.00000000      0.00000000      0.00000000
      0.00000000      0.00000000      0.00000000      0.00000000      0.00000000      0.00000000      0.00000000      0.00000000      0.00000000      0.00000000      0.00000000      0.00000000      0.00000000      0.00000000      0.00000000</v>
    <i name="NUPDOWN">      0.00000000</i>
    <i type="logical" name="LSORBIT"> F  </i>
    <v name="SAXIS">      0.00000000      0.00000000      1.00000000</v>
    <i type="logical" name="LSPIRAL"> F  </i>
    <v name="QSPIRAL">      0.00000000      0.00000000      0.00000000</v>
    <i type="logical" name="LZEROZ"> F  </i>
   </separator>
   <separator name="electronic exchange-correlation" >
    <i type="logical" name="LASPH"> F  </i>
    <i type="logical" name="LMETAGGA"> F  </i>
   </separator>
   <separator name="electronic convergence" >
    <i type="int" name="NELM">    60</i>
    <i type="int" name="NELMDL">    -5</i>
    <i type="int" name="NELMIN">     2</i>
    <i name="ENINI">    700.00000000</i>
    <separator name="electronic convergence detail" >
     <i type="logical" name="LDIAG"> T  </i>
     <i type="logical" name="LSUBROT"> F  </i>
     <i name="WEIMIN">      0.00000000</i>
     <i name="EBREAK">      0.00000002</i>
     <i name="DEPER">      0.30000000</i>
     <i type="int" name="NRMM">     4</i>
     <i name="TIME">      0.05000000</i>
    </separator>
   </separator>
   <separator name="electronic mixer" >
    <i name="AMIX">      0.40000000</i>
    <i name="BMIX">      2.00000000</i>
    <i name="AMIN">      0.10000000</i>
    <i name="AMIX_MAG">      1.60000000</i>
    <i name="BMIX_MAG">      2.00000000</i>
    <separator name="electronic mixer details" >
     <i type="int" name="IMIX">     4</i>
     <i type="int" name="MAXMIX">   -45</i>
     <i name="WC">    100.00000000</i>
     <i type="int" name="INIMIX">     1</i>
     <i type="int" name="MIXPRE">     1</i>
     <i type="int" name="MREMOVE">     5</i>
    </separator>
   </separator>
   <separator name="electronic dipolcorrection" >
    <i type="logical" name="LDIPOL"> F  </i>
    <i type="logical" name="LMONO"> F  </i>
    <i type="int" name="IDIPOL">     0</i>
    <i name="EPSILON">      1.00000000</i>
    <v name="DIPOL">   -100.00000000   -100.00000000   -100.00000000</v>
    <i name="EFIELD">      0.00000000</i>
   </separator>
  </separator>
  <separator name="grids" >
   <i type="int" name="NGX">   180</i>
   <i type="int" name="NGY">   180</i>
   <i type="int" name="NGZ">   180</i>
   <i type="int" name="NGXF">   360</i>
   <i type="int" name="NGYF">   360</i>
   <i type="int" name="NGZF">   360</i>
   <i type="logical" name="ADDGRID"> T  </i>
  </separator>
  <separator name="ionic" >
   <i type="int" name="NSW">     0</i>
   <i type="int" name="IBRION">    -1</i>
   <i type="int" name="ISIF">     2</i>
   <i name="PSTRESS">      0.00000000</i>
   <i name="EDIFFG">     -0.01000000</i>
   <i type="int" name="NFREE">     0</i>
   <i name="POTIM">      0.50000000</i>
   <i name="SMASS">     -3.00000000</i>
   <i name="SCALEE">      1.00000000</i>
  </separator>
  <separator name="ionic md" >
   <i name="TEBEG">      0.00010000</i>
   <i name="TEEND">      0.00010000</i>
   <i type="int" name="NBLOCK">     1</i>
   <i type="int" name="KBLOCK">     1</i>
   <i type="int" name="NPACO">   256</i>
   <i name="APACO">     16.00000000</i>
  </separator>
  <separator name="symmetry" >
   <i type="int" name="ISYM">     2</i>
   <i name="SYMPREC">      0.00001000</i>
  </separator>
  <separator name="dos" >
   <i type="logical" name="LORBIT"> F  </i>
   <v name="RWIGS">     -1.00000000     -1.00000000     -1.00000000     -1.00000000     -1.00000000     -1.00000000</v>
   <i type="int" name="NEDOS">   301</i>
   <i name="EMIN">     10.00000000</i>
   <i name="EMAX">    -10.00000000</i>
   <i name="EFERMI">      0.00000000</i>
  </separator>
  <separator name="writing" >
   <i type="int" name="NWRITE">     2</i>
   <i type="logical" name="LWAVE"> T  </i>
   <i type="logical" name="LCHARG"> T  </i>
   <i type="logical" name="LPARD"> F  </i>
   <i type="logical" name="LVTOT"> F  </i>
   <i type="logical" name="LVHAR"> F  </i>
   <i type="logical" name="LELF"> F  </i>
   <i type="logical" name="LOPTICS"> F  </i>
   <v name="STM">      0.00000000      0.00000000      0.00000000      0.00000000      0.00000000      0.00000000      0.00000000</v>
  </separator>
  <separator name="performance" >
   <i type="int" name="NPAR">    64</i>
   <i type="int" name="NSIM">     4</i>
   <i type="int" name="NBLK">    -1</i>
   <i type="logical" name="LPLANE"> T  </i>
   <i type="logical" name="LSCALAPACK"> T  </i>
   <i type="logical" name="LSCAAWARE"> F  </i>
   <i type="logical" name="LSCALU"> F  </i>
   <i type="logical" name="LASYNC"> F  </i>
   <i type="logical" name="LORBITALREAL"> F  </i>
  </separator>
  <separator name="miscellaneous" >
   <i type="int" name="IDIOT">     3</i>
   <i type="logical" name="LMUSIC"> F  </i>
   <v name="POMASS">     12.01100000     12.01100000      1.00000000     14.00100000     16.00000000    101.07000000</v>
   <v name="DARWINR">      0.00000000      0.00000000      0.00000000      0.00000000      0.00000000      0.00000000</v>
   <v name="DARWINV">      1.00000000      1.00000000      1.00000000      1.00000000      1.00000000      1.00000000</v>
   <i type="logical" name="LCORR"> T  </i>
  </separator>
  <i type="logical" name="GGA_COMPAT"> T  </i>
  <i type="logical" name="LBERRY"> F  </i>
  <i type="int" name="ICORELEVEL">     2</i>
  <i type="int" name="CLNT">     1</i>
  <i type="int" name="CLN">     1</i>
  <i type="int" name="CLL">     0</i>
  <i name="CLZ">      0.50000000</i>
  <i type="logical" name="LDAU"> F  </i>
  <i type="int" name="I_CONSTRAINED_M">     0</i>
  <separator name="electronic exchange-correlation" >
   <i type="string" name="GGA">--</i>
   <i type="int" name="VOSKOWN">     0</i>
   <i type="logical" name="LHFCALC"> F  </i>
   <i type="string" name="PRECFOCK"></i>
   <i type="logical" name="LSYMGRAD"> F  </i>
   <i type="logical" name="LHFONE"> F  </i>
   <i type="logical" name="LRHFCALC"> F  </i>
   <i type="logical" name="LTHOMAS"> F  </i>
   <i type="logical" name="LMODELHF"> F  </i>
   <i name="ENCUT4O">     -1.00000000</i>
   <i type="int" name="EXXOEP">     0</i>
   <i type="int" name="FOURORBIT">     0</i>
   <i name="AEXX">      0.00000000</i>
   <i name="HFALPHA">      0.00000000</i>
   <i name="MCALPHA">      0.00000000</i>
   <i name="ALDAX">      1.00000000</i>
   <i name="AGGAX">      1.00000000</i>
   <i name="ALDAC">      1.00000000</i>
   <i name="AGGAC">      1.00000000</i>
   <i type="int" name="NKREDX">     1</i>
   <i type="int" name="NKREDY">     1</i>
   <i type="int" name="NKREDZ">     1</i>
   <i type="logical" name="SHIFTRED"> F  </i>
   <i type="logical" name="ODDONLY"> F  </i>
   <i type="logical" name="EVENONLY"> F  </i>
   <i type="int" name="LMAXFOCK">     0</i>
   <i type="int" name="NMAXFOCKAE">     0</i>
   <i type="logical" name="LFOCKAEDFT"> F  </i>
   <i name="HFSCREEN">      0.00000000</i>
   <i name="HFSCREENC">      0.00000000</i>
   <i type="int" name="NBANDSGWLOW">     0</i>
  </separator>
  <separator name="vdW DFT" >
   <i type="logical" name="LUSE_VDW"> F  </i>
   <i name="Zab_VDW">     -0.84910000</i>
   <i name="PARAM1">      0.12340000</i>
   <i name="PARAM2">      1.00000000</i>
   <i name="PARAM3">      0.00000000</i>
  </separator>
  <separator name="model GW" >
   <i type="int" name="MODEL_GW">     0</i>
   <i name="MODEL_EPS0">     87.27272727</i>
   <i name="MODEL_ALPHA">      1.00000000</i>
  </separator>
  <separator name="linear response parameters" >
   <i type="logical" name="LEPSILON"> F  </i>
   <i type="logical" name="LRPA"> F  </i>
   <i type="logical" name="LNABLA"> F  </i>
   <i type="logical" name="LVEL"> F  </i>
   <i type="int" name="KINTER">     0</i>
   <i name="CSHIFT">      0.10000000</i>
   <i name="OMEGAMAX">     -1.00000000</i>
   <i name="DEG_THRESHOLD">      0.00200000</i>
  </separator>
  <separator name="orbital magnetization" >
   <i type="logical" name="NUCIND"> F  </i>
   <v name="MAGPOS">      0.00000000      0.00000000      0.00000000</v>
   <i type="logical" name="LNICSALL"> T  </i>
   <i type="logical" name="ORBITALMAG"> F  </i>
   <i type="logical" name="LMAGBLOCH"> F  </i>
   <i type="logical" name="LCHIMAG"> F  </i>
   <i type="logical" name="LGAUGE"> T  </i>
   <i type="int" name="MAGATOM">     0</i>
   <v name="MAGDIPOL">      0.00000000      0.00000000      0.00000000</v>
   <v name="AVECCONST">      0.00000000      0.00000000      0.00000000</v>
  </separator>
  <separator name="response functions" >
   <i type="logical" name="LADDER"> F  </i>
   <i type="logical" name="LFXC"> F  </i>
   <i type="logical" name="LHARTREE"> T  </i>
   <i type="int" name="IBSE">     0</i>
   <i type="logical" name="LTCTE"> F  </i>
   <i type="logical" name="LTETE"> F  </i>
   <i type="logical" name="LTRIPLET"> F  </i>
   <i type="logical" name="LFXCEPS"> F  </i>
   <i type="logical" name="LFXHEG"> F  </i>
   <i type="logical" name="L2ORDER"> F  </i>
   <i type="logical" name="LUSEW"> F  </i>
   <i name="ENCUTGW">     -2.00000000</i>
   <i name="ENCUTGWSOFT">     -2.00000000</i>
   <i name="ENCUTLF">     -1.00000000</i>
   <i type="int" name="LMAXMP2">    -1</i>
   <i name="SCISSOR">      0.00000000</i>
   <i type="int" name="NOMEGA">     0</i>
   <i type="int" name="NOMEGAR">     0</i>
   <i type="int" name="NBANDSGW">    -1</i>
   <i type="int" name="NBANDSO">    -1</i>
   <i type="int" name="NBANDSV">    -1</i>
   <i type="int" name="NELM">     1</i>
   <i type="int" name="DIM">     3</i>
   <i type="int" name="ANTIRES">     0</i>
   <i name="OMEGAMAX">    -30.00000000</i>
   <i name="OMEGAMIN">    -30.00000000</i>
   <i name="OMEGATL">   -200.00000000</i>
   <i type="int" name="OMEGAGRID">     0</i>
   <i name="CSHIFT">     -0.10000000</i>
   <i type="logical" name="SELFENERGY"> F  </i>
   <i type="logical" name="LSPECTRAL"> F  </i>
   <i type="logical" name="ODDONLYGW"> F  </i>
   <i type="logical" name="EVENONLYGW"> F  </i>
   <i type="int" name="NKREDLFX">     1</i>
   <i type="int" name="NKREDLFY">     1</i>
   <i type="int" name="NKREDLFZ">     1</i>
   <i type="int" name="MAXMEM">  1800</i>
   <i type="int" name="TELESCOPE">     0</i>
   <i type="int" name="TAUPAR">     1</i>
  </separator>
  <separator name="External order field" >
   <i name="OFIELD_KAPPA">      0.00000000</i>
   <v name="OFIELD_K">      0.00000000      0.00000000      0.00000000</v>
   <i name="OFIELD_Q6_NEAR">      0.00000000</i>
   <i name="OFIELD_Q6_FAR">      0.00000000</i>
   <i name="OFIELD_A">      0.00000000</i>
  </separator>
 </parameters>
 <atominfo>
  <atoms>      55 </atoms>
  <types>       6 </types>
  <array name="atoms" >
   <dimension dim="1">ion</dimension>
   <field type="string">element</field>
   <field type="int">atomtype</field>
   <set>
    <rc><c>C </c><c>   1</c></rc>
    <rc><c>C </c><c>   2</c></rc>
    <rc><c>C </c><c>   2</c></rc>
    <rc><c>C </c><c>   2</c></rc>
    <rc><c>C </c><c>   2</c></rc>
    <rc><c>C </c><c>   2</c></rc>
    <rc><c>C </c><c>   2</c></rc>
    <rc><c>C </c><c>   2</c></rc>
    <rc><c>C </c><c>   2</c></rc>
    <rc><c>C </c><c>   2</c></rc>
    <rc><c>C </c><c>   2</c></rc>
    <rc><c>C </c><c>   2</c></rc>
    <rc><c>C </c><c>   2</c></rc>
    <rc><c>C </c><c>   2</c></rc>
    <rc><c>C </c><c>   2</c></rc>
    <rc><c>C </c><c>   2</c></rc>
    <rc><c>C </c><c>   2</c></rc>
    <rc><c>C </c><c>   2</c></rc>
    <rc><c>C </c><c>   2</c></rc>
    <rc><c>C </c><c>   2</c></rc>
    <rc><c>C </c><c>   2</c></rc>
    <rc><c>C </c><c>   2</c></rc>
    <rc><c>C </c><c>   2</c></rc>
    <rc><c>C </c><c>   2</c></rc>
    <rc><c>C </c><c>   2</c></rc>
    <rc><c>H </c><c>   3</c></rc>
    <rc><c>H </c><c>   3</c></rc>
    <rc><c>H </c><c>   3</c></rc>
    <rc><c>H </c><c>   3</c></rc>
    <rc><c>H </c><c>   3</c></rc>
    <rc><c>H </c><c>   3</c></rc>
    <rc><c>H </c><c>   3</c></rc>
    <rc><c>H </c><c>   3</c></rc>
    <rc><c>H </c><c>   3</c></rc>
    <rc><c>H </c><c>   3</c></rc>
    <rc><c>H </c><c>   3</c></rc>
    <rc><c>H </c><c>   3</c></rc>
    <rc><c>H </c><c>   3</c></rc>
    <rc><c>H </c><c>   3</c></rc>
    <rc><c>H </c><c>   3</c></rc>
    <rc><c>H </c><c>   3</c></rc>
    <rc><c>H </c><c>   3</c></rc>
    <rc><c>H </c><c>   3</c></rc>
    <rc><c>H </c><c>   3</c></rc>
    <rc><c>H </c><c>   3</c></rc>
    <rc><c>H </c><c>   3</c></rc>
    <rc><c>H </c><c>   3</c></rc>
    <rc><c>H </c><c>   3</c></rc>
    <rc><c>N </c><c>   4</c></rc>
    <rc><c>N </c><c>   4</c></rc>
    <rc><c>N </c><c>   4</c></rc>
    <rc><c>N </c><c>   4</c></rc>
    <rc><c>N </c><c>   4</c></rc>
    <rc><c>O </c><c>   5</c></rc>
    <rc><c>Ru</c><c>   6</c></rc>
   </set>
  </array>
  <array name="atomtypes" >
   <dimension dim="1">type</dimension>
   <field type="int">atomspertype</field>
   <field type="string">element</field>
   <field>mass</field>
   <field>valence</field>
   <field type="string">pseudopotential</field>
   <set>
    <rc><c>   1</c><c>C </c><c>     12.01100000</c><c>      4.50000000</c><c>  PAW_PBE C_h 06Feb2004                 </c></rc>
    <rc><c>  24</c><c>C </c><c>     12.01100000</c><c>      4.00000000</c><c>  PAW_PBE C_h 06Feb2004                 </c></rc>
    <rc><c>  23</c><c>H </c><c>      1.00000000</c><c>      1.00000000</c><c>  PAW_PBE H 15Jun2001                   </c></rc>
    <rc><c>   5</c><c>N </c><c>     14.00100000</c><c>      5.00000000</c><c>  PAW_PBE N_h 06Feb2004                 </c></rc>
    <rc><c>   1</c><c>O </c><c>     16.00000000</c><c>      6.00000000</c><c>  PAW_PBE O_h 06Feb2004                 </c></rc>
    <rc><c>   1</c><c>Ru</c><c>    101.07000000</c><c>     14.00000000</c><c>  PAW_PBE Ru_pv 28Jan2005               </c></rc>
   </set>
  </array>
 </atominfo>
 <structure name="initialpos" >
  <crystal>
   <varray name="basis" >
    <v>      20.00000000       0.00000000       0.00000000 </v>
    <v>       0.00000000      20.00000000       0.00000000 </v>
    <v>       0.00000000       0.00000000      20.00000000 </v>
   </varray>
   <i name="volume">   8000.00000000 </i>
   <varray name="rec_basis" >
    <v>       0.05000000       0.00000000       0.00000000 </v>
    <v>       0.00000000       0.05000000       0.00000000 </v>
    <v>       0.00000000       0.00000000       0.05000000 </v>
   </varray>
  </crystal>
  <varray name="positions" >
   <v>       0.36211554       0.48866484       0.56417415 </v>
   <v>       0.43793752       0.56561110       0.32757008 </v>
   <v>       0.45581208       0.52423376       0.38051465 </v>
   <v>       0.47372925       0.61530131       0.44986522 </v>
   <v>       0.45595175       0.65963312       0.39935201 </v>
   <v>       0.43785737       0.63472201       0.33675972 </v>
   <v>       0.52307882       0.32955005       0.67474498 </v>
   <v>       0.49710163       0.37190466       0.62618823 </v>
   <v>       0.60227374       0.41933300       0.60593616 </v>
   <v>       0.63096398       0.37761922       0.65422416 </v>
   <v>       0.73964927       0.52855915       0.53463181 </v>
   <v>       0.70082162       0.56612858       0.49044049 </v>
   <v>       0.63257913       0.55363620       0.48652424 </v>
   <v>       0.63952130       0.46927713       0.56732841 </v>
   <v>       0.70843899       0.47974495       0.57314689 </v>
   <v>       0.59134754       0.33224398       0.68903016 </v>
   <v>       0.29334713       0.47671938       0.56830116 </v>
   <v>       0.40790931       0.62211625       0.69058213 </v>
   <v>       0.47619960       0.62606623       0.67660612 </v>
   <v>       0.50295190       0.58590820       0.62668073 </v>
   <v>       0.39825425       0.53800137       0.60426081 </v>
   <v>       0.36904589       0.57756069       0.65398228 </v>
   <v>       0.37289802       0.40579857       0.48223443 </v>
   <v>       0.30486503       0.39173492       0.48443166 </v>
   <v>       0.26422003       0.42785518       0.52821594 </v>
   <v>       0.48989745       0.29510618       0.70074864 </v>
   <v>       0.61334240       0.29968355       0.72673159 </v>
   <v>       0.68424189       0.38076917       0.66478776 </v>
   <v>       0.54225374       0.36233861       0.46129841 </v>
   <v>       0.31579090       0.57306911       0.66420366 </v>
   <v>       0.44416348       0.37118871       0.61364770 </v>
   <v>       0.42392665       0.66833230       0.29622671 </v>
   <v>       0.45642762       0.71313270       0.40950260 </v>
   <v>       0.48809132       0.63358802       0.49907234 </v>
   <v>       0.56912778       0.41808713       0.41480476 </v>
   <v>       0.73767440       0.44963919       0.60776512 </v>
   <v>       0.72277620       0.60481012       0.45904817 </v>
   <v>       0.45570253       0.47012894       0.37468790 </v>
   <v>       0.40614333       0.37888556       0.44852541 </v>
   <v>       0.28443799       0.35306162       0.45202062 </v>
   <v>       0.79326502       0.53703787       0.53892527 </v>
   <v>       0.55589708       0.58769132       0.61440612 </v>
   <v>       0.42412006       0.54328620       0.27986105 </v>
   <v>       0.50894741       0.65984570       0.70400156 </v>
   <v>       0.26265982       0.50568523       0.60265428 </v>
   <v>       0.21072272       0.41813760       0.53105039 </v>
   <v>       0.60090654       0.58197914       0.45254259 </v>
   <v>       0.38544357       0.65296704       0.72941133 </v>
   <v>       0.47424490       0.54794204       0.44140236 </v>
   <v>       0.40180479       0.45306079       0.52108436 </v>
   <v>       0.53520702       0.41608490       0.59173240 </v>
   <v>       0.46544808       0.54254992       0.59041194 </v>
   <v>       0.60138410       0.50650621       0.52397638 </v>
   <v>       0.53073984       0.40562607       0.44215451 </v>
   <v>       0.50088568       0.48087016       0.51934246 </v>
  </varray>
  <varray name="selective"  type="logical" >
   <v type="logical" >  T  T  T </v>
   <v type="logical" >  T  T  T </v>
   <v type="logical" >  T  T  T </v>
   <v type="logical" >  T  T  T </v>
   <v type="logical" >  T  T  T </v>
   <v type="logical" >  T  T  T </v>
   <v type="logical" >  T  T  T </v>
   <v type="logical" >  T  T  T </v>
   <v type="logical" >  T  T  T </v>
   <v type="logical" >  T  T  T </v>
   <v type="logical" >  T  T  T </v>
   <v type="logical" >  T  T  T </v>
   <v type="logical" >  T  T  T </v>
   <v type="logical" >  T  T  T </v>
   <v type="logical" >  T  T  T </v>
   <v type="logical" >  T  T  T </v>
   <v type="logical" >  T  T  T </v>
   <v type="logical" >  T  T  T </v>
   <v type="logical" >  T  T  T </v>
   <v type="logical" >  T  T  T </v>
   <v type="logical" >  T  T  T </v>
   <v type="logical" >  T  T  T </v>
   <v type="logical" >  T  T  T </v>
   <v type="logical" >  T  T  T </v>
   <v type="logical" >  T  T  T </v>
   <v type="logical" >  T  T  T </v>
   <v type="logical" >  T  T  T </v>
   <v type="logical" >  T  T  T </v>
   <v type="logical" >  T  T  T </v>
   <v type="logical" >  T  T  T </v>
   <v type="logical" >  T  T  T </v>
   <v type="logical" >  T  T  T </v>
   <v type="logical" >  T  T  T </v>
   <v type="logical" >  T  T  T </v>
   <v type="logical" >  T  T  T </v>
   <v type="logical" >  T  T  T </v>
   <v type="logical" >  T  T  T </v>
   <v type="logical" >  T  T  T </v>
   <v type="logical" >  T  T  T </v>
   <v type="logical" >  T  T  T </v>
   <v type="logical" >  T  T  T </v>
   <v type="logical" >  T  T  T </v>
   <v type="logical" >  T  T  T </v>
   <v type="logical" >  T  T  T </v>
   <v type="logical" >  T  T  T </v>
   <v type="logical" >  T  T  T </v>
   <v type="logical" >  T  T  T </v>
   <v type="logical" >  T  T  T </v>
   <v type="logical" >  T  T  T </v>
   <v type="logical" >  T  T  T </v>
   <v type="logical" >  T  T  T </v>
   <v type="logical" >  T  T  T </v>
   <v type="logical" >  T  T  T </v>
   <v type="logical" >  T  T  T </v>
   <v type="logical" >  T  T  T </v>
  </varray>
  <nose>
   <v>      -3.00000000       0.00000000       0.00010000       0.00010000 </v>
  </nose>
 </structure>
 <calculation>
  <scstep>
   <time name="dav">   14.88   15.78</time>
   <time name="total">   22.64   23.59</time>
   <energy>
    <i name="alphaZ">     12.91687988 </i>
    <i name="ewald">  23339.30524205 </i>
    <i name="hartreedc"> -28940.97582672 </i>
    <i name="XCdc">    401.01754695 </i>
    <i name="pawpsdc">   5890.45591622 </i>
    <i name="pawaedc">  -5710.10246236 </i>
    <i name="eentropy">     -0.00001710 </i>
    <i name="bandstr">  -1674.91674196 </i>
    <i name="atom">   7593.39991119 </i>
    <i name="e_fr_energy">    911.10044816 </i>
    <i name="e_wo_entrp">    911.10046526 </i>
    <i name="e_0_energy">    911.10045671 </i>
   </energy>
  </scstep>
  <scstep>
   <time name="dav">   19.16   20.38</time>
   <time name="total">   19.16   20.39</time>
   <energy>
    <i name="e_fr_energy">    -69.96662560 </i>
    <i name="e_wo_entrp">    -69.96662560 </i>
    <i name="e_0_energy">    -69.96662560 </i>
   </energy>
  </scstep>
  <scstep>
   <time name="dav">   15.02   15.86</time>
   <time name="total">   15.03   15.88</time>
   <energy>
    <i name="e_fr_energy">   -389.39745952 </i>
    <i name="e_wo_entrp">   -389.39745952 </i>
    <i name="e_0_energy">   -389.39745952 </i>
   </energy>
  </scstep>
  <scstep>
   <time name="dav">   13.88   14.73</time>
   <time name="total">   13.89   14.74</time>
   <energy>
    <i name="e_fr_energy">   -410.31630876 </i>
    <i name="e_wo_entrp">   -410.31495416 </i>
    <i name="e_0_energy">   -410.31563146 </i>
   </energy>
  </scstep>
  <scstep>
   <time name="dav">   16.02   16.92</time>
   <time name="total">   21.56   22.48</time>
   <energy>
    <i name="e_fr_energy">   -410.59364916 </i>
    <i name="e_wo_entrp">   -410.59260276 </i>
    <i name="e_0_energy">   -410.59312596 </i>
   </energy>
  </scstep>
  <scstep>
   <time name="dav">   11.99   12.66</time>
   <time name="total">   25.22   26.01</time>
   <energy>
    <i name="e_fr_energy">   -392.52897227 </i>
    <i name="e_wo_entrp">   -392.52897227 </i>
    <i name="e_0_energy">   -392.52897227 </i>
   </energy>
  </scstep>
  <scstep>
   <time name="dav">   15.11   16.32</time>
   <time name="total">   28.26   29.51</time>
   <energy>
    <i name="e_fr_energy">   -382.27759697 </i>
    <i name="e_wo_entrp">   -382.27759697 </i>
    <i name="e_0_energy">   -382.27759697 </i>
   </energy>
  </scstep>
  <scstep>
   <time name="dav">   15.30   16.59</time>
   <time name="total">   28.48   29.81</time>
   <energy>
    <i name="e_fr_energy">   -378.20861813 </i>
    <i name="e_wo_entrp">   -378.20861813 </i>
    <i name="e_0_energy">   -378.20861813 </i>
   </energy>
  </scstep>
  <scstep>
   <time name="dav">   15.10   16.30</time>
   <time name="total">   28.21   29.46</time>
   <energy>
    <i name="e_fr_energy">   -377.09709878 </i>
    <i name="e_wo_entrp">   -377.09709878 </i>
    <i name="e_0_energy">   -377.09709878 </i>
   </energy>
  </scstep>
  <scstep>
   <time name="dav">   15.25   16.43</time>
   <time name="total">   28.45   29.67</time>
   <energy>
    <i name="e_fr_energy">   -377.06877108 </i>
    <i name="e_wo_entrp">   -377.06877108 </i>
    <i name="e_0_energy">   -377.06877108 </i>
   </energy>
  </scstep>
  <scstep>
   <time name="dav">   15.08   16.24</time>
   <time name="total">   28.28   29.48</time>
   <energy>
    <i name="e_fr_energy">   -376.95239580 </i>
    <i name="e_wo_entrp">   -376.95239580 </i>
    <i name="e_0_energy">   -376.95239580 </i>
   </energy>
  </scstep>
  <scstep>
   <time name="dav">   15.18   16.37</time>
   <time name="total">   28.39   29.63</time>
   <energy>
    <i name="e_fr_energy">   -376.87225673 </i>
    <i name="e_wo_entrp">   -376.87225673 </i>
    <i name="e_0_energy">   -376.87225673 </i>
   </energy>
  </scstep>
  <scstep>
   <time name="dav">   15.09   16.25</time>
   <time name="total">   28.27   29.44</time>
   <energy>
    <i name="e_fr_energy">   -376.84917501 </i>
    <i name="e_wo_entrp">   -376.84917501 </i>
    <i name="e_0_energy">   -376.84917501 </i>
   </energy>
  </scstep>
  <scstep>
   <time name="dav">   15.21   16.36</time>
   <time name="total">   28.55   29.73</time>
   <energy>
    <i name="e_fr_energy">   -376.83416658 </i>
    <i name="e_wo_entrp">   -376.83416658 </i>
    <i name="e_0_energy">   -376.83416658 </i>
   </energy>
  </scstep>
  <scstep>
   <time name="dav">   15.10   16.27</time>
   <time name="total">   28.18   29.56</time>
   <energy>
    <i name="e_fr_energy">   -376.83169975 </i>
    <i name="e_wo_entrp">   -376.83169975 </i>
    <i name="e_0_energy">   -376.83169975 </i>
   </energy>
  </scstep>
  <scstep>
   <time name="dav">   15.34   16.47</time>
   <time name="total">   28.61   29.76</time>
   <energy>
    <i name="e_fr_energy">   -376.83626662 </i>
    <i name="e_wo_entrp">   -376.83626662 </i>
    <i name="e_0_energy">   -376.83626662 </i>
   </energy>
  </scstep>
  <scstep>
   <time name="dav">   15.09   16.25</time>
   <time name="total">   28.42   29.60</time>
   <energy>
    <i name="e_fr_energy">   -376.84540417 </i>
    <i name="e_wo_entrp">   -376.84540417 </i>
    <i name="e_0_energy">   -376.84540417 </i>
   </energy>
  </scstep>
  <scstep>
   <time name="dav">   15.36   16.53</time>
   <time name="total">   28.59   29.79</time>
   <energy>
    <i name="e_fr_energy">   -376.84988293 </i>
    <i name="e_wo_entrp">   -376.84988293 </i>
    <i name="e_0_energy">   -376.84988293 </i>
   </energy>
  </scstep>
  <scstep>
   <time name="dav">   10.81   11.40</time>
   <time name="total">   24.07   24.68</time>
   <energy>
    <i name="e_fr_energy">   -376.85456794 </i>
    <i name="e_wo_entrp">   -376.85456794 </i>
    <i name="e_0_energy">   -376.85456794 </i>
   </energy>
  </scstep>
  <scstep>
   <time name="dav">   15.28   16.47</time>
   <time name="total">   28.59   29.83</time>
   <energy>
    <i name="e_fr_energy">   -376.85773406 </i>
    <i name="e_wo_entrp">   -376.85773406 </i>
    <i name="e_0_energy">   -376.85773406 </i>
   </energy>
  </scstep>
  <scstep>
   <time name="dav">   15.07   16.27</time>
   <time name="total">   28.31   29.55</time>
   <energy>
    <i name="e_fr_energy">   -376.85952620 </i>
    <i name="e_wo_entrp">   -376.85952620 </i>
    <i name="e_0_energy">   -376.85952620 </i>
   </energy>
  </scstep>
  <scstep>
   <time name="dav">   15.31   16.46</time>
   <time name="total">   28.65   29.85</time>
   <energy>
    <i name="e_fr_energy">   -376.86110654 </i>
    <i name="e_wo_entrp">   -376.86110654 </i>
    <i name="e_0_energy">   -376.86110654 </i>
   </energy>
  </scstep>
  <scstep>
   <time name="dav">   13.13   14.20</time>
   <time name="total">   26.34   27.43</time>
   <energy>
    <i name="e_fr_energy">   -376.86190317 </i>
    <i name="e_wo_entrp">   -376.86190317 </i>
    <i name="e_0_energy">   -376.86190317 </i>
   </energy>
  </scstep>
  <scstep>
   <time name="dav">   13.27   14.31</time>
   <time name="total">   26.62   27.68</time>
   <energy>
    <i name="e_fr_energy">   -376.86249838 </i>
    <i name="e_wo_entrp">   -376.86249838 </i>
    <i name="e_0_energy">   -376.86249838 </i>
   </energy>
  </scstep>
  <scstep>
   <time name="dav">   13.14   14.22</time>
   <time name="total">   26.48   27.58</time>
   <energy>
    <i name="e_fr_energy">   -376.86278859 </i>
    <i name="e_wo_entrp">   -376.86278859 </i>
    <i name="e_0_energy">   -376.86278859 </i>
   </energy>
  </scstep>
  <scstep>
   <time name="dav">   13.17   14.30</time>
   <time name="total">   26.57   27.75</time>
   <energy>
    <i name="e_fr_energy">   -376.86295186 </i>
    <i name="e_wo_entrp">   -376.86295186 </i>
    <i name="e_0_energy">   -376.86295186 </i>
   </energy>
  </scstep>
  <scstep>
   <time name="dav">   13.14   14.29</time>
   <time name="total">   26.50   27.71</time>
   <energy>
    <i name="e_fr_energy">   -376.86308428 </i>
    <i name="e_wo_entrp">   -376.86308428 </i>
    <i name="e_0_energy">   -376.86308428 </i>
   </energy>
  </scstep>
  <scstep>
   <time name="dav">   13.14   14.29</time>
   <time name="total">   26.34   27.53</time>
   <energy>
    <i name="e_fr_energy">   -376.86312082 </i>
    <i name="e_wo_entrp">   -376.86312082 </i>
    <i name="e_0_energy">   -376.86312082 </i>
   </energy>
  </scstep>
  <scstep>
   <time name="dav">   13.36   14.48</time>
   <time name="total">   26.69   27.94</time>
   <energy>
    <i name="e_fr_energy">   -376.86314626 </i>
    <i name="e_wo_entrp">   -376.86314626 </i>
    <i name="e_0_energy">   -376.86314626 </i>
   </energy>
  </scstep>
  <scstep>
   <time name="dav">   13.15   14.29</time>
   <time name="total">   26.39   27.57</time>
   <energy>
    <i name="e_fr_energy">   -376.86316438 </i>
    <i name="e_wo_entrp">   -376.86316438 </i>
    <i name="e_0_energy">   -376.86316438 </i>
   </energy>
  </scstep>
  <scstep>
   <time name="dav">   13.33   14.46</time>
   <time name="total">   21.28   22.44</time>
   <energy>
    <i name="alphaZ">     12.91687988 </i>
    <i name="ewald">  23339.30524205 </i>
    <i name="hartreedc"> -29170.55805698 </i>
    <i name="XCdc">    424.18796859 </i>
    <i name="pawpsdc">  81051.05542621 </i>
    <i name="pawaedc"> -80877.87505535 </i>
    <i name="eentropy">     -0.00000000 </i>
    <i name="bandstr">  -2749.29548431 </i>
    <i name="atom">   7593.39991119 </i>
    <i name="e_fr_energy">   -376.86316871 </i>
    <i name="e_wo_entrp">   -376.86316871 </i>
    <i name="e_0_energy">   -376.86316871 </i>
   </energy>
  </scstep>
  <structure>
   <crystal>
    <varray name="basis" >
     <v>      20.00000000       0.00000000       0.00000000 </v>
     <v>       0.00000000      20.00000000       0.00000000 </v>
     <v>       0.00000000       0.00000000      20.00000000 </v>
    </varray>
    <i name="volume">   8000.00000000 </i>
    <varray name="rec_basis" >
     <v>       0.05000000       0.00000000       0.00000000 </v>
     <v>       0.00000000       0.05000000       0.00000000 </v>
     <v>       0.00000000       0.00000000       0.05000000 </v>
    </varray>
   </crystal>
   <varray name="positions" >
    <v>       0.36211554       0.48866484       0.56417415 </v>
    <v>       0.43793752       0.56561110       0.32757008 </v>
    <v>       0.45581208       0.52423376       0.38051465 </v>
    <v>       0.47372925       0.61530131       0.44986522 </v>
    <v>       0.45595175       0.65963312       0.39935201 </v>
    <v>       0.43785737       0.63472201       0.33675972 </v>
    <v>       0.52307882       0.32955005       0.67474498 </v>
    <v>       0.49710163       0.37190466       0.62618823 </v>
    <v>       0.60227374       0.41933300       0.60593616 </v>
    <v>       0.63096398       0.37761922       0.65422416 </v>
    <v>       0.73964927       0.52855915       0.53463181 </v>
    <v>       0.70082162       0.56612858       0.49044049 </v>
    <v>       0.63257913       0.55363620       0.48652424 </v>
    <v>       0.63952130       0.46927713       0.56732841 </v>
    <v>       0.70843899       0.47974495       0.57314689 </v>
    <v>       0.59134754       0.33224398       0.68903016 </v>
    <v>       0.29334713       0.47671938       0.56830116 </v>
    <v>       0.40790931       0.62211625       0.69058213 </v>
    <v>       0.47619960       0.62606623       0.67660612 </v>
    <v>       0.50295190       0.58590820       0.62668073 </v>
    <v>       0.39825425       0.53800137       0.60426081 </v>
    <v>       0.36904589       0.57756069       0.65398228 </v>
    <v>       0.37289802       0.40579857       0.48223443 </v>
    <v>       0.30486503       0.39173492       0.48443166 </v>
    <v>       0.26422003       0.42785518       0.52821594 </v>
    <v>       0.48989745       0.29510618       0.70074864 </v>
    <v>       0.61334240       0.29968355       0.72673159 </v>
    <v>       0.68424189       0.38076917       0.66478776 </v>
    <v>       0.54225374       0.36233861       0.46129841 </v>
    <v>       0.31579090       0.57306911       0.66420366 </v>
    <v>       0.44416348       0.37118871       0.61364770 </v>
    <v>       0.42392665       0.66833230       0.29622671 </v>
    <v>       0.45642762       0.71313270       0.40950260 </v>
    <v>       0.48809132       0.63358802       0.49907234 </v>
    <v>       0.56912778       0.41808713       0.41480476 </v>
    <v>       0.73767440       0.44963919       0.60776512 </v>
    <v>       0.72277620       0.60481012       0.45904817 </v>
    <v>       0.45570253       0.47012894       0.37468790 </v>
    <v>       0.40614333       0.37888556       0.44852541 </v>
    <v>       0.28443799       0.35306162       0.45202062 </v>
    <v>       0.79326502       0.53703787       0.53892527 </v>
    <v>       0.55589708       0.58769132       0.61440612 </v>
    <v>       0.42412006       0.54328620       0.27986105 </v>
    <v>       0.50894741       0.65984570       0.70400156 </v>
    <v>       0.26265982       0.50568523       0.60265428 </v>
    <v>       0.21072272       0.41813760       0.53105039 </v>
    <v>       0.60090654       0.58197914       0.45254259 </v>
    <v>       0.38544357       0.65296704       0.72941133 </v>
    <v>       0.47424490       0.54794204       0.44140236 </v>
    <v>       0.40180479       0.45306079       0.52108436 </v>
    <v>       0.53520702       0.41608490       0.59173240 </v>
    <v>       0.46544808       0.54254992       0.59041194 </v>
    <v>       0.60138410       0.50650621       0.52397638 </v>
    <v>       0.53073984       0.40562607       0.44215451 </v>
    <v>       0.50088568       0.48087016       0.51934246 </v>
   </varray>
  </structure>
  <varray name="forces" >
   <v>      -0.33746389       0.09294708       0.16344576 </v>
   <v>      -0.01443374      -0.02322292      -0.00468678 </v>
   <v>       0.00116551      -0.01637121      -0.00475789 </v>
   <v>       0.01253101       0.00812205       0.01857152 </v>
   <v>       0.00163167       0.01440377       0.01518322 </v>
   <v>       0.00624137      -0.00080308       0.00905900 </v>
   <v>      -0.01165294      -0.00840061       0.00901810 </v>
   <v>       0.02503812       0.02278157      -0.02588408 </v>
   <v>      -0.01995989      -0.00347104       0.00355429 </v>
   <v>       0.00064888       0.01455780      -0.00998502 </v>
   <v>      -0.02481987       0.01648290      -0.02384439 </v>
   <v>       0.02937595      -0.00815321       0.01880408 </v>
   <v>      -0.08191760       0.00385487      -0.02106087 </v>
   <v>      -0.03305104      -0.00396736      -0.00319929 </v>
   <v>      -0.01662244      -0.00362763       0.00420239 </v>
   <v>      -0.02039131       0.00115072      -0.00813914 </v>
   <v>       0.74980215      -0.00005757      -0.17646398 </v>
   <v>       0.04464442      -0.01483188      -0.03246820 </v>
   <v>      -0.01809737      -0.00170019       0.00265970 </v>
   <v>      -0.04997387       0.00355315       0.02397746 </v>
   <v>      -0.10217194      -0.25854022      -0.22391696 </v>
   <v>      -0.22076447      -0.17081218      -0.11637672 </v>
   <v>      -0.18256827       0.01788499       0.05814909 </v>
   <v>       0.06474114       0.02379606       0.00604953 </v>
   <v>       0.05850690       0.07175874       0.06169139 </v>
   <v>      -0.00036378      -0.00529268       0.00406782 </v>
   <v>      -0.00037251      -0.00525723       0.00456815 </v>
   <v>      -0.00244238      -0.00091945       0.00204584 </v>
   <v>       0.03501508      -0.02788841      -0.00645685 </v>
   <v>      -0.00875476       0.03393148       0.03359094 </v>
   <v>       0.00111999      -0.03105369       0.01809720 </v>
   <v>      -0.00036477       0.00618330      -0.00317977 </v>
   <v>       0.00548862       0.00190320      -0.00017623 </v>
   <v>       0.01008017       0.01870722      -0.01023727 </v>
   <v>       0.01460588      -0.00642464      -0.03440770 </v>
   <v>       0.00117978       0.00068235       0.00069371 </v>
   <v>      -0.00198173       0.00221687      -0.00551729 </v>
   <v>       0.01178593      -0.00522585      -0.02236134 </v>
   <v>       0.04659025       0.06406656       0.05139097 </v>
   <v>      -0.01211994      -0.01115097      -0.00735544 </v>
   <v>       0.00165236       0.00273048       0.00069752 </v>
   <v>      -0.01021849      -0.01469191      -0.01166355 </v>
   <v>      -0.00271753      -0.00023613       0.00097639 </v>
   <v>      -0.00065200       0.00569760       0.00347337 </v>
   <v>       0.15370746       0.06428243       0.02755739 </v>
   <v>       0.01038919       0.05264462       0.04735759 </v>
   <v>       0.01245424       0.00211819      -0.00648918 </v>
   <v>      -0.02208691      -0.00876964      -0.00393392 </v>
   <v>       0.01064147       0.08272079      -0.10092719 </v>
   <v>       0.23308416       0.35692341       0.26001383 </v>
   <v>       0.11200231      -0.08587468       0.09170096 </v>
   <v>      -0.14444786      -0.24063297      -0.18754371 </v>
   <v>       0.11692502       0.01648708      -0.00527845 </v>
   <v>      -0.03476337       0.05829364       0.08292823 </v>
   <v>      -0.39587435      -0.10350557       0.03278578 </v>
  </varray>
  <varray name="stress" >
   <v>      -3.14578652      -0.20483467      -0.10013197 </v>
   <v>      -0.20483465      -2.86240820      -0.28364653 </v>
   <v>      -0.10013197      -0.28364652      -2.82172505 </v>
  </varray>
  <energy>
   <i name="e_fr_energy">   -376.86316871 </i>
   <i name="e_wo_entrp">   -376.86316871 </i>
   <i name="e_0_energy">     -0.00000000 </i>
  </energy>
  <time name="totalsc"> 1052.81 1089.58</time>
  <eigenvalues>
   <array>
    <dimension dim="1">band</dimension>
    <dimension dim="2">kpoint</dimension>
    <dimension dim="3">spin</dimension>
    <field>eigene</field>
    <field>occ</field>
    <set>
     <set comment="spin 1">
      <set comment="kpoint 1">
       <r>  -49.2313    1.0000 </r>
       <r>  -49.0758    1.0000 </r>
       <r>  -48.8645    1.0000 </r>
       <r>  -29.2040    1.0000 </r>
       <r>  -28.0608    1.0000 </r>
       <r>  -26.8968    1.0000 </r>
       <r>  -26.7842    1.0000 </r>
       <r>  -26.2443    1.0000 </r>
       <r>  -26.1930    1.0000 </r>
       <r>  -23.5740    1.0000 </r>
       <r>  -23.2219    1.0000 </r>
       <r>  -22.6577    1.0000 </r>
       <r>  -22.4804    1.0000 </r>
       <r>  -22.3592    1.0000 </r>
       <r>  -22.2540    1.0000 </r>
       <r>  -22.1067    1.0000 </r>
       <r>  -21.5510    1.0000 </r>
       <r>  -21.1825    1.0000 </r>
       <r>  -20.8423    1.0000 </r>
       <r>  -19.6142    1.0000 </r>
       <r>  -19.3460    1.0000 </r>
       <r>  -18.7649    1.0000 </r>
       <r>  -18.5001    1.0000 </r>
       <r>  -18.2590    1.0000 </r>
       <r>  -18.0609    1.0000 </r>
       <r>  -17.9025    1.0000 </r>
       <r>  -17.6995    1.0000 </r>
       <r>  -17.6500    1.0000 </r>
       <r>  -17.3506    1.0000 </r>
       <r>  -16.8817    1.0000 </r>
       <r>  -16.6914    1.0000 </r>
       <r>  -15.9000    1.0000 </r>
       <r>  -15.6660    1.0000 </r>
       <r>  -15.3542    1.0000 </r>
       <r>  -15.2201    1.0000 </r>
       <r>  -14.8106    1.0000 </r>
       <r>  -14.7542    1.0000 </r>
       <r>  -14.7083    1.0000 </r>
       <r>  -14.4731    1.0000 </r>
       <r>  -14.3098    1.0000 </r>
       <r>  -14.1937    1.0000 </r>
       <r>  -14.1126    1.0000 </r>
       <r>  -13.9832    1.0000 </r>
       <r>  -13.8419    1.0000 </r>
       <r>  -13.7987    1.0000 </r>
       <r>  -13.6210    1.0000 </r>
       <r>  -13.4370    1.0000 </r>
       <r>  -13.4259    1.0000 </r>
       <r>  -13.3050    1.0000 </r>
       <r>  -13.2044    1.0000 </r>
       <r>  -12.9605    1.0000 </r>
       <r>  -12.8948    1.0000 </r>
       <r>  -12.8430    1.0000 </r>
       <r>  -12.7738    1.0000 </r>
       <r>  -12.5607    1.0000 </r>
       <r>  -12.4566    1.0000 </r>
       <r>  -12.3276    1.0000 </r>
       <r>  -12.3025    1.0000 </r>
       <r>  -12.1129    1.0000 </r>
       <r>  -11.9925    1.0000 </r>
       <r>  -11.6352    1.0000 </r>
       <r>  -11.4837    1.0000 </r>
       <r>  -11.3873    1.0000 </r>
       <r>  -11.1981    1.0000 </r>
       <r>  -11.1430    1.0000 </r>
       <r>  -10.8311    1.0000 </r>
       <r>  -10.8018    1.0000 </r>
       <r>  -10.6798    1.0000 </r>
       <r>  -10.6430    1.0000 </r>
       <r>  -10.5432    1.0000 </r>
       <r>  -10.1967    1.0000 </r>
       <r>  -10.1561    1.0000 </r>
       <r>   -9.8700    1.0000 </r>
       <r>   -9.8079    1.0000 </r>
       <r>   -9.7681    1.0000 </r>
       <r>   -9.6414    1.0000 </r>
       <r>   -9.5272    1.0000 </r>
       <r>   -9.0439    1.0000 </r>
       <r>   -8.8069    1.0000 </r>
       <r>   -8.4354    1.0000 </r>
       <r>   -7.5421    1.0000 </r>
       <r>   -7.4066    1.0000 </r>
       <r>   -7.2496    1.0000 </r>
       <r>   -5.7976    0.0000 </r>
       <r>   -5.0664    0.0000 </r>
       <r>   -4.8325    0.0000 </r>
       <r>   -4.4732    0.0000 </r>
       <r>   -4.1955    0.0000 </r>
       <r>   -4.1859    0.0000 </r>
       <r>   -4.0288    0.0000 </r>
       <r>   -3.9478    0.0000 </r>
       <r>   -3.5654    0.0000 </r>
       <r>   -3.5174    0.0000 </r>
       <r>   -3.2776    0.0000 </r>
       <r>   -2.8783    0.0000 </r>
       <r>   -2.7851    0.0000 </r>
       <r>   -1.9323    0.0000 </r>
       <r>   -1.6721    0.0000 </r>
       <r>   -1.5401    0.0000 </r>
       <r>   -1.3381    0.0000 </r>
       <r>   -1.2841    0.0000 </r>
       <r>   -1.2106    0.0000 </r>
       <r>   -1.1612    0.0000 </r>
       <r>   -1.0124    0.0000 </r>
       <r>   -0.8618    0.0000 </r>
       <r>   -0.7607    0.0000 </r>
       <r>   -0.6796    0.0000 </r>
       <r>   -0.5833    0.0000 </r>
       <r>   -0.5588    0.0000 </r>
       <r>   -0.5325    0.0000 </r>
       <r>   -0.4074    0.0000 </r>
       <r>   -0.3716    0.0000 </r>
       <r>   -0.2380    0.0000 </r>
       <r>   -0.1767    0.0000 </r>
       <r>   -0.0861    0.0000 </r>
       <r>   -0.0429    0.0000 </r>
       <r>    0.0566    0.0000 </r>
       <r>    0.0983    0.0000 </r>
       <r>    0.1619    0.0000 </r>
       <r>    0.2663    0.0000 </r>
       <r>    0.3190    0.0000 </r>
       <r>    0.3488    0.0000 </r>
       <r>    0.4149    0.0000 </r>
       <r>    0.4463    0.0000 </r>
       <r>    0.5148    0.0000 </r>
       <r>    0.6124    0.0000 </r>
       <r>    0.6251    0.0000 </r>
       <r>    0.6505    0.0000 </r>
      </set>
     </set>
     <set comment="spin 2">
      <set comment="kpoint 1">
       <r>  -49.2313    1.0000 </r>
       <r>  -49.0758    1.0000 </r>
       <r>  -48.8645    1.0000 </r>
       <r>  -29.2040    1.0000 </r>
       <r>  -28.0608    1.0000 </r>
       <r>  -26.8968    1.0000 </r>
       <r>  -26.7842    1.0000 </r>
       <r>  -26.2443    1.0000 </r>
       <r>  -26.1930    1.0000 </r>
       <r>  -23.5740    1.0000 </r>
       <r>  -23.2219    1.0000 </r>
       <r>  -22.6577    1.0000 </r>
       <r>  -22.4804    1.0000 </r>
       <r>  -22.3592    1.0000 </r>
       <r>  -22.2540    1.0000 </r>
       <r>  -22.1067    1.0000 </r>
       <r>  -21.5510    1.0000 </r>
       <r>  -21.1825    1.0000 </r>
       <r>  -20.8423    1.0000 </r>
       <r>  -19.6142    1.0000 </r>
       <r>  -19.3460    1.0000 </r>
       <r>  -18.7649    1.0000 </r>
       <r>  -18.5001    1.0000 </r>
       <r>  -18.2590    1.0000 </r>
       <r>  -18.0609    1.0000 </r>
       <r>  -17.9025    1.0000 </r>
       <r>  -17.6995    1.0000 </r>
       <r>  -17.6500    1.0000 </r>
       <r>  -17.3506    1.0000 </r>
       <r>  -16.8817    1.0000 </r>
       <r>  -16.6914    1.0000 </r>
       <r>  -15.9000    1.0000 </r>
       <r>  -15.6660    1.0000 </r>
       <r>  -15.3542    1.0000 </r>
       <r>  -15.2201    1.0000 </r>
       <r>  -14.8106    1.0000 </r>
       <r>  -14.7542    1.0000 </r>
       <r>  -14.7083    1.0000 </r>
       <r>  -14.4731    1.0000 </r>
       <r>  -14.3098    1.0000 </r>
       <r>  -14.1937    1.0000 </r>
       <r>  -14.1126    1.0000 </r>
       <r>  -13.9832    1.0000 </r>
       <r>  -13.8419    1.0000 </r>
       <r>  -13.7987    1.0000 </r>
       <r>  -13.6210    1.0000 </r>
       <r>  -13.4370    1.0000 </r>
       <r>  -13.4259    1.0000 </r>
       <r>  -13.3050    1.0000 </r>
       <r>  -13.2044    1.0000 </r>
       <r>  -12.9605    1.0000 </r>
       <r>  -12.8948    1.0000 </r>
       <r>  -12.8430    1.0000 </r>
       <r>  -12.7738    1.0000 </r>
       <r>  -12.5607    1.0000 </r>
       <r>  -12.4566    1.0000 </r>
       <r>  -12.3276    1.0000 </r>
       <r>  -12.3025    1.0000 </r>
       <r>  -12.1129    1.0000 </r>
       <r>  -11.9925    1.0000 </r>
       <r>  -11.6352    1.0000 </r>
       <r>  -11.4837    1.0000 </r>
       <r>  -11.3873    1.0000 </r>
       <r>  -11.1981    1.0000 </r>
       <r>  -11.1430    1.0000 </r>
       <r>  -10.8311    1.0000 </r>
       <r>  -10.8018    1.0000 </r>
       <r>  -10.6798    1.0000 </r>
       <r>  -10.6430    1.0000 </r>
       <r>  -10.5432    1.0000 </r>
       <r>  -10.1967    1.0000 </r>
       <r>  -10.1561    1.0000 </r>
       <r>   -9.8700    1.0000 </r>
       <r>   -9.8079    1.0000 </r>
       <r>   -9.7681    1.0000 </r>
       <r>   -9.6414    1.0000 </r>
       <r>   -9.5272    1.0000 </r>
       <r>   -9.0439    1.0000 </r>
       <r>   -8.8069    1.0000 </r>
       <r>   -8.4354    1.0000 </r>
       <r>   -7.5421    1.0000 </r>
       <r>   -7.4066    1.0000 </r>
       <r>   -7.2496    1.0000 </r>
       <r>   -5.7976    0.0000 </r>
       <r>   -5.0664    0.0000 </r>
       <r>   -4.8325    0.0000 </r>
       <r>   -4.4732    0.0000 </r>
       <r>   -4.1955    0.0000 </r>
       <r>   -4.1859    0.0000 </r>
       <r>   -4.0288    0.0000 </r>
       <r>   -3.9478    0.0000 </r>
       <r>   -3.5654    0.0000 </r>
       <r>   -3.5174    0.0000 </r>
       <r>   -3.2776    0.0000 </r>
       <r>   -2.8783    0.0000 </r>
       <r>   -2.7851    0.0000 </r>
       <r>   -1.9323    0.0000 </r>
       <r>   -1.6721    0.0000 </r>
       <r>   -1.5401    0.0000 </r>
       <r>   -1.3381    0.0000 </r>
       <r>   -1.2841    0.0000 </r>
       <r>   -1.2106    0.0000 </r>
       <r>   -1.1612    0.0000 </r>
       <r>   -1.0124    0.0000 </r>
       <r>   -0.8618    0.0000 </r>
       <r>   -0.7607    0.0000 </r>
       <r>   -0.6796    0.0000 </r>
       <r>   -0.5833    0.0000 </r>
       <r>   -0.5588    0.0000 </r>
       <r>   -0.5325    0.0000 </r>
       <r>   -0.4074    0.0000 </r>
       <r>   -0.3716    0.0000 </r>
       <r>   -0.2380    0.0000 </r>
       <r>   -0.1767    0.0000 </r>
       <r>   -0.0861    0.0000 </r>
       <r>   -0.0429    0.0000 </r>
       <r>    0.0566    0.0000 </r>
       <r>    0.0983    0.0000 </r>
       <r>    0.1619    0.0000 </r>
       <r>    0.2663    0.0000 </r>
       <r>    0.3190    0.0000 </r>
       <r>    0.3488    0.0000 </r>
       <r>    0.4149    0.0000 </r>
       <r>    0.4463    0.0000 </r>
       <r>    0.5148    0.0000 </r>
       <r>    0.6124    0.0000 </r>
       <r>    0.6252    0.0000 </r>
       <r>    0.6506    0.0000 </r>
      </set>
     </set>
    </set>
   </array>
  </eigenvalues>
  <separator name="orbital magnetization" >
   <v name="MAGDIPOLOUT">      0.00000000      0.00000000      0.00000000</v>
  </separator>
  <dos>
   <i name="efermi">     -7.18919098 </i>
   <total>
    <array>
     <dimension dim="1">gridpoints</dimension>
     <dimension dim="2">spin</dimension>
     <field>energy</field>
     <field>total</field>
     <field>integrated</field>
     <set>
      <set comment="spin 1">
       <r>   -51.7254     0.0000     0.0000 </r>
       <r>   -51.5425     0.0000     0.0000 </r>
       <r>   -51.3596     0.0000     0.0000 </r>
       <r>   -51.1767     0.0000     0.0000 </r>
       <r>   -50.9938     0.0000     0.0000 </r>
       <r>   -50.8109     0.0000     0.0000 </r>
       <r>   -50.6280     0.0000     0.0000 </r>
       <r>   -50.4451     0.0000     0.0000 </r>
       <r>   -50.2622     0.0000     0.0000 </r>
       <r>   -50.0793     0.0000     0.0000 </r>
       <r>   -49.8964     0.0000     0.0000 </r>
       <r>   -49.7135     0.0000     0.0000 </r>
       <r>   -49.5306     0.0000     0.0000 </r>
       <r>   -49.3477     0.0000     0.0000 </r>
       <r>   -49.1648    10.9349     2.0000 </r>
       <r>   -48.9819     0.0000     4.0000 </r>
       <r>   -48.7990    10.9349     6.0000 </r>
       <r>   -48.6161     0.0000     6.0000 </r>
       <r>   -48.4332     0.0000     6.0000 </r>
       <r>   -48.2503     0.0000     6.0000 </r>
       <r>   -48.0674     0.0000     6.0000 </r>
       <r>   -47.8845     0.0000     6.0000 </r>
       <r>   -47.7016     0.0000     6.0000 </r>
       <r>   -47.5187     0.0000     6.0000 </r>
       <r>   -47.3358     0.0000     6.0000 </r>
       <r>   -47.1529     0.0000     6.0000 </r>
       <r>   -46.9700     0.0000     6.0000 </r>
       <r>   -46.7871     0.0000     6.0000 </r>
       <r>   -46.6042     0.0000     6.0000 </r>
       <r>   -46.4213     0.0000     6.0000 </r>
       <r>   -46.2384     0.0000     6.0000 </r>
       <r>   -46.0555     0.0000     6.0000 </r>
       <r>   -45.8726     0.0000     6.0000 </r>
       <r>   -45.6897     0.0000     6.0000 </r>
       <r>   -45.5068     0.0000     6.0000 </r>
       <r>   -45.3239     0.0000     6.0000 </r>
       <r>   -45.1410     0.0000     6.0000 </r>
       <r>   -44.9581     0.0000     6.0000 </r>
       <r>   -44.7752     0.0000     6.0000 </r>
       <r>   -44.5923     0.0000     6.0000 </r>
       <r>   -44.4094     0.0000     6.0000 </r>
       <r>   -44.2265     0.0000     6.0000 </r>
       <r>   -44.0435     0.0000     6.0000 </r>
       <r>   -43.8606     0.0000     6.0000 </r>
       <r>   -43.6777     0.0000     6.0000 </r>
       <r>   -43.4948     0.0000     6.0000 </r>
       <r>   -43.3119     0.0000     6.0000 </r>
       <r>   -43.1290     0.0000     6.0000 </r>
       <r>   -42.9461     0.0000     6.0000 </r>
       <r>   -42.7632     0.0000     6.0000 </r>
       <r>   -42.5803     0.0000     6.0000 </r>
       <r>   -42.3974     0.0000     6.0000 </r>
       <r>   -42.2145     0.0000     6.0000 </r>
       <r>   -42.0316     0.0000     6.0000 </r>
       <r>   -41.8487     0.0000     6.0000 </r>
       <r>   -41.6658     0.0000     6.0000 </r>
       <r>   -41.4829     0.0000     6.0000 </r>
       <r>   -41.3000     0.0000     6.0000 </r>
       <r>   -41.1171     0.0000     6.0000 </r>
       <r>   -40.9342     0.0000     6.0000 </r>
       <r>   -40.7513     0.0000     6.0000 </r>
       <r>   -40.5684     0.0000     6.0000 </r>
       <r>   -40.3855     0.0000     6.0000 </r>
       <r>   -40.2026     0.0000     6.0000 </r>
       <r>   -40.0197     0.0000     6.0000 </r>
       <r>   -39.8368     0.0000     6.0000 </r>
       <r>   -39.6539     0.0000     6.0000 </r>
       <r>   -39.4710     0.0000     6.0000 </r>
       <r>   -39.2881     0.0000     6.0000 </r>
       <r>   -39.1052     0.0000     6.0000 </r>
       <r>   -38.9223     0.0000     6.0000 </r>
       <r>   -38.7394     0.0000     6.0000 </r>
       <r>   -38.5565     0.0000     6.0000 </r>
       <r>   -38.3736     0.0000     6.0000 </r>
       <r>   -38.1907     0.0000     6.0000 </r>
       <r>   -38.0078     0.0000     6.0000 </r>
       <r>   -37.8249     0.0000     6.0000 </r>
       <r>   -37.6420     0.0000     6.0000 </r>
       <r>   -37.4591     0.0000     6.0000 </r>
       <r>   -37.2762     0.0000     6.0000 </r>
       <r>   -37.0933     0.0000     6.0000 </r>
       <r>   -36.9104     0.0000     6.0000 </r>
       <r>   -36.7275     0.0000     6.0000 </r>
       <r>   -36.5446     0.0000     6.0000 </r>
       <r>   -36.3617     0.0000     6.0000 </r>
       <r>   -36.1788     0.0000     6.0000 </r>
       <r>   -35.9959     0.0000     6.0000 </r>
       <r>   -35.8130     0.0000     6.0000 </r>
       <r>   -35.6301     0.0000     6.0000 </r>
       <r>   -35.4472     0.0000     6.0000 </r>
       <r>   -35.2643     0.0000     6.0000 </r>
       <r>   -35.0814     0.0000     6.0000 </r>
       <r>   -34.8985     0.0000     6.0000 </r>
       <r>   -34.7156     0.0000     6.0000 </r>
       <r>   -34.5327     0.0000     6.0000 </r>
       <r>   -34.3498     0.0000     6.0000 </r>
       <r>   -34.1669     0.0000     6.0000 </r>
       <r>   -33.9840     0.0000     6.0000 </r>
       <r>   -33.8011     0.0000     6.0000 </r>
       <r>   -33.6182     0.0000     6.0000 </r>
       <r>   -33.4353     0.0000     6.0000 </r>
       <r>   -33.2524     0.0000     6.0000 </r>
       <r>   -33.0695     0.0000     6.0000 </r>
       <r>   -32.8866     0.0000     6.0000 </r>
       <r>   -32.7037     0.0000     6.0000 </r>
       <r>   -32.5208     0.0000     6.0000 </r>
       <r>   -32.3379     0.0000     6.0000 </r>
       <r>   -32.1550     0.0000     6.0000 </r>
       <r>   -31.9721     0.0000     6.0000 </r>
       <r>   -31.7892     0.0000     6.0000 </r>
       <r>   -31.6063     0.0000     6.0000 </r>
       <r>   -31.4234     0.0000     6.0000 </r>
       <r>   -31.2405     0.0000     6.0000 </r>
       <r>   -31.0576     0.0000     6.0000 </r>
       <r>   -30.8747     0.0000     6.0000 </r>
       <r>   -30.6918     0.0000     6.0000 </r>
       <r>   -30.5089     0.0000     6.0000 </r>
       <r>   -30.3260     0.0000     6.0000 </r>
       <r>   -30.1431     0.0000     6.0000 </r>
       <r>   -29.9602     0.0000     6.0000 </r>
       <r>   -29.7773     0.0000     6.0000 </r>
       <r>   -29.5944     0.0000     6.0000 </r>
       <r>   -29.4115     0.0000     6.0000 </r>
       <r>   -29.2286     0.0026     6.0005 </r>
       <r>   -29.0457     0.0000     8.0000 </r>
       <r>   -28.8628     0.0000     8.0000 </r>
       <r>   -28.6799     0.0000     8.0000 </r>
       <r>   -28.4970     0.0000     8.0000 </r>
       <r>   -28.3141     0.0000     8.0000 </r>
       <r>   -28.1312     0.0000     8.0000 </r>
       <r>   -27.9483     0.0000    10.0000 </r>
       <r>   -27.7654     0.0000    10.0000 </r>
       <r>   -27.5825     0.0000    10.0000 </r>
       <r>   -27.3996     0.0000    10.0000 </r>
       <r>   -27.2167     0.0000    10.0000 </r>
       <r>   -27.0338     0.0000    10.0000 </r>
       <r>   -26.8509    10.9349    12.0000 </r>
       <r>   -26.6680     0.0000    14.0000 </r>
       <r>   -26.4851     0.0000    14.0000 </r>
       <r>   -26.3022     0.0000    14.0000 </r>
       <r>   -26.1193    10.9349    18.0000 </r>
       <r>   -25.9364     0.0000    18.0000 </r>
       <r>   -25.7535     0.0000    18.0000 </r>
       <r>   -25.5706     0.0000    18.0000 </r>
       <r>   -25.3877     0.0000    18.0000 </r>
       <r>   -25.2048     0.0000    18.0000 </r>
       <r>   -25.0219     0.0000    18.0000 </r>
       <r>   -24.8390     0.0000    18.0000 </r>
       <r>   -24.6561     0.0000    18.0000 </r>
       <r>   -24.4732     0.0000    18.0000 </r>
       <r>   -24.2903     0.0000    18.0000 </r>
       <r>   -24.1074     0.0000    18.0000 </r>
       <r>   -23.9245     0.0000    18.0000 </r>
       <r>   -23.7416     0.0000    18.0000 </r>
       <r>   -23.5587    10.7646    19.9689 </r>
       <r>   -23.3758     0.0000    20.0000 </r>
       <r>   -23.1929    10.9347    22.0000 </r>
       <r>   -23.0100     0.0000    22.0000 </r>
       <r>   -22.8271     0.0000    22.0000 </r>
       <r>   -22.6442    10.6250    23.9433 </r>
       <r>   -22.4613    10.8969    25.9930 </r>
       <r>   -22.2784     0.0029    28.0005 </r>
       <r>   -22.0955    10.3110    31.8859 </r>
       <r>   -21.9126     0.0000    32.0000 </r>
       <r>   -21.7297     0.0000    32.0000 </r>
       <r>   -21.5468     7.9088    33.4465 </r>
       <r>   -21.3639     0.0000    34.0000 </r>
       <r>   -21.1810     6.3405    35.1597 </r>
       <r>   -20.9981     0.0000    36.0000 </r>
       <r>   -20.8152    10.9342    37.9999 </r>
       <r>   -20.6323     0.0000    38.0000 </r>
       <r>   -20.4494     0.0000    38.0000 </r>
       <r>   -20.2665     0.0000    38.0000 </r>
       <r>   -20.0836     0.0000    38.0000 </r>
       <r>   -19.9007     0.0000    38.0000 </r>
       <r>   -19.7178     0.0000    38.0000 </r>
       <r>   -19.5349    10.9349    40.0000 </r>
       <r>   -19.3520     2.1374    40.3909 </r>
       <r>   -19.1691     0.0000    42.0000 </r>
       <r>   -18.9862     0.0000    42.0000 </r>
       <r>   -18.8033     0.0000    42.0000 </r>
       <r>   -18.6204     0.0000    44.0000 </r>
       <r>   -18.4375    10.9349    46.0000 </r>
       <r>   -18.2546     8.0092    47.4649 </r>
       <r>   -18.0717     0.6917    48.1265 </r>
       <r>   -17.8888    10.6403    51.9461 </r>
       <r>   -17.7059     1.9649    52.3594 </r>
       <r>   -17.5230     0.0000    56.0000 </r>
       <r>   -17.3401    10.1840    57.8627 </r>
       <r>   -17.1572     0.0000    58.0000 </r>
       <r>   -16.9743     0.0000    58.0000 </r>
       <r>   -16.7914     0.0000    60.0000 </r>
       <r>   -16.6085     0.0000    62.0000 </r>
       <r>   -16.4256     0.0000    62.0000 </r>
       <r>   -16.2427     0.0000    62.0000 </r>
       <r>   -16.0598     0.0000    62.0000 </r>
       <r>   -15.8769    10.9288    63.9989 </r>
       <r>   -15.6940     0.0004    64.0001 </r>
       <r>   -15.5111     0.0000    66.0000 </r>
       <r>   -15.3282    10.9336    67.9998 </r>
       <r>   -15.1453    10.9349    70.0000 </r>
       <r>   -14.9624     0.0000    70.0000 </r>
       <r>   -14.7795    10.9367    72.0003 </r>
       <r>   -14.5966     0.0000    76.0000 </r>
       <r>   -14.4137    10.9349    78.0000 </r>
       <r>   -14.2308    10.9349    80.0000 </r>
       <r>   -14.0479    10.9349    84.0000 </r>
       <r>   -13.8650     0.0059    86.0011 </r>
       <r>   -13.6821     0.0000    90.0000 </r>
       <r>   -13.4992     0.0000    92.0000 </r>
       <r>   -13.3163     0.5859    96.1072 </r>
       <r>   -13.1334    10.9349   100.0000 </r>
       <r>   -12.9505    10.0548   101.8390 </r>
       <r>   -12.7676    19.7754   107.6169 </r>
       <r>   -12.5847     0.0036   108.0007 </r>
       <r>   -12.4018    10.9349   112.0000 </r>
       <r>   -12.2189     0.0000   116.0000 </r>
       <r>   -12.0360    10.9349   118.0000 </r>
       <r>   -11.8531     0.0000   120.0000 </r>
       <r>   -11.6702     0.0000   120.0000 </r>
       <r>   -11.4873     3.3160   122.6065 </r>
       <r>   -11.3044     0.0000   126.0000 </r>
       <r>   -11.1215    21.8568   129.9976 </r>
       <r>   -10.9386     0.0000   130.0000 </r>
       <r>   -10.7557    21.8699   134.0000 </r>
       <r>   -10.5728    10.9351   138.0000 </r>
       <r>   -10.3899     0.0000   140.0000 </r>
       <r>   -10.2070     0.7937   140.1452 </r>
       <r>   -10.0241     0.0000   144.0000 </r>
       <r>    -9.8412    10.9347   146.0000 </r>
       <r>    -9.6583     0.0923   150.0169 </r>
       <r>    -9.4754    10.9349   154.0000 </r>
       <r>    -9.2925     0.0000   154.0000 </r>
       <r>    -9.1096     0.0000   154.0000 </r>
       <r>    -8.9267     0.0000   156.0000 </r>
       <r>    -8.7438    10.9349   158.0000 </r>
       <r>    -8.5609     0.0000   158.0000 </r>
       <r>    -8.3780    10.9349   160.0000 </r>
       <r>    -8.1951     0.0000   160.0000 </r>
       <r>    -8.0122     0.0000   160.0000 </r>
       <r>    -7.8293     0.0000   160.0000 </r>
       <r>    -7.6464     0.0000   160.0000 </r>
       <r>    -7.4635    10.9349   162.0000 </r>
       <r>    -7.2806     0.0001   164.0000 </r>
       <r>    -7.0977     0.0000   166.0000 </r>
       <r>    -6.9148     0.0000   166.0000 </r>
       <r>    -6.7319     0.0000   166.0000 </r>
       <r>    -6.5490     0.0000   166.0000 </r>
       <r>    -6.3661     0.0000   166.0000 </r>
       <r>    -6.1832     0.0000   166.0000 </r>
       <r>    -6.0003     0.0000   166.0000 </r>
       <r>    -5.8174     0.0271   166.0050 </r>
       <r>    -5.6345     0.0000   168.0000 </r>
       <r>    -5.4516     0.0000   168.0000 </r>
       <r>    -5.2687     0.0000   168.0000 </r>
       <r>    -5.0858     0.0324   168.0059 </r>
       <r>    -4.9029     0.0000   170.0000 </r>
       <r>    -4.7200     0.0000   172.0000 </r>
       <r>    -4.5371     0.0000   172.0000 </r>
       <r>    -4.3542     0.0000   174.0000 </r>
       <r>    -4.1713    21.6486   177.9595 </r>
       <r>    -3.9884    10.9349   180.0000 </r>
       <r>    -3.8055     0.0000   182.0000 </r>
       <r>    -3.6226     0.0000   182.0000 </r>
       <r>    -3.4397    10.9349   186.0000 </r>
       <r>    -3.2568    10.9168   187.9967 </r>
       <r>    -3.0739     0.0000   188.0000 </r>
       <r>    -2.8910     0.3931   188.0719 </r>
       <r>    -2.7081    10.9349   192.0000 </r>
       <r>    -2.5252     0.0000   192.0000 </r>
       <r>    -2.3423     0.0000   192.0000 </r>
       <r>    -2.1594     0.0000   192.0000 </r>
       <r>    -1.9765     0.0000   192.0000 </r>
       <r>    -1.7936     0.0000   194.0000 </r>
       <r>    -1.6107    10.9349   196.0000 </r>
       <r>    -1.4278     0.0000   198.0000 </r>
       <r>    -1.2449    10.9349   202.0000 </r>
       <r>    -1.0620     0.0000   206.0000 </r>
       <r>    -0.8791     0.0769   208.0141 </r>
       <r>    -0.6962    11.0351   212.0183 </r>
       <r>    -0.5133    32.7676   219.9932 </r>
       <r>    -0.3304    21.8699   224.0000 </r>
       <r>    -0.1475    10.9347   228.0000 </r>
       <r>     0.0354    10.9494   232.0026 </r>
       <r>     0.2183    10.9349   238.0000 </r>
       <r>     0.4012    11.2225   244.0526 </r>
       <r>     0.5841    10.9353   250.0001 </r>
       <r>     0.7670     0.0000   256.0000 </r>
       <r>     0.9499     0.0000   256.0000 </r>
       <r>     1.1328     0.0000   256.0000 </r>
       <r>     1.3157     0.0000   256.0000 </r>
       <r>     1.4986     0.0000   256.0000 </r>
       <r>     1.6815     0.0000   256.0000 </r>
       <r>     1.8644     0.0000   256.0000 </r>
       <r>     2.0473     0.0000   256.0000 </r>
       <r>     2.2302     0.0000   256.0000 </r>
       <r>     2.4131     0.0000   256.0000 </r>
       <r>     2.5960     0.0000   256.0000 </r>
       <r>     2.7789     0.0000   256.0000 </r>
       <r>     2.9618     0.0000   256.0000 </r>
       <r>     3.1447     0.0000   256.0000 </r>
      </set>
      <set comment="spin 2">
       <r>   -51.7254     0.0000     0.0000 </r>
       <r>   -51.5425     0.0000     0.0000 </r>
       <r>   -51.3596     0.0000     0.0000 </r>
       <r>   -51.1767     0.0000     0.0000 </r>
       <r>   -50.9938     0.0000     0.0000 </r>
       <r>   -50.8109     0.0000     0.0000 </r>
       <r>   -50.6280     0.0000     0.0000 </r>
       <r>   -50.4451     0.0000     0.0000 </r>
       <r>   -50.2622     0.0000     0.0000 </r>
       <r>   -50.0793     0.0000     0.0000 </r>
       <r>   -49.8964     0.0000     0.0000 </r>
       <r>   -49.7135     0.0000     0.0000 </r>
       <r>   -49.5306     0.0000     0.0000 </r>
       <r>   -49.3477     0.0000     0.0000 </r>
       <r>   -49.1648    10.9349     2.0000 </r>
       <r>   -48.9819     0.0000     4.0000 </r>
       <r>   -48.7990    10.9349     6.0000 </r>
       <r>   -48.6161     0.0000     6.0000 </r>
       <r>   -48.4332     0.0000     6.0000 </r>
       <r>   -48.2503     0.0000     6.0000 </r>
       <r>   -48.0674     0.0000     6.0000 </r>
       <r>   -47.8845     0.0000     6.0000 </r>
       <r>   -47.7016     0.0000     6.0000 </r>
       <r>   -47.5187     0.0000     6.0000 </r>
       <r>   -47.3358     0.0000     6.0000 </r>
       <r>   -47.1529     0.0000     6.0000 </r>
       <r>   -46.9700     0.0000     6.0000 </r>
       <r>   -46.7871     0.0000     6.0000 </r>
       <r>   -46.6042     0.0000     6.0000 </r>
       <r>   -46.4213     0.0000     6.0000 </r>
       <r>   -46.2384     0.0000     6.0000 </r>
       <r>   -46.0555     0.0000     6.0000 </r>
       <r>   -45.8726     0.0000     6.0000 </r>
       <r>   -45.6897     0.0000     6.0000 </r>
       <r>   -45.5068     0.0000     6.0000 </r>
       <r>   -45.3239     0.0000     6.0000 </r>
       <r>   -45.1410     0.0000     6.0000 </r>
       <r>   -44.9581     0.0000     6.0000 </r>
       <r>   -44.7752     0.0000     6.0000 </r>
       <r>   -44.5923     0.0000     6.0000 </r>
       <r>   -44.4094     0.0000     6.0000 </r>
       <r>   -44.2265     0.0000     6.0000 </r>
       <r>   -44.0435     0.0000     6.0000 </r>
       <r>   -43.8606     0.0000     6.0000 </r>
       <r>   -43.6777     0.0000     6.0000 </r>
       <r>   -43.4948     0.0000     6.0000 </r>
       <r>   -43.3119     0.0000     6.0000 </r>
       <r>   -43.1290     0.0000     6.0000 </r>
       <r>   -42.9461     0.0000     6.0000 </r>
       <r>   -42.7632     0.0000     6.0000 </r>
       <r>   -42.5803     0.0000     6.0000 </r>
       <r>   -42.3974     0.0000     6.0000 </r>
       <r>   -42.2145     0.0000     6.0000 </r>
       <r>   -42.0316     0.0000     6.0000 </r>
       <r>   -41.8487     0.0000     6.0000 </r>
       <r>   -41.6658     0.0000     6.0000 </r>
       <r>   -41.4829     0.0000     6.0000 </r>
       <r>   -41.3000     0.0000     6.0000 </r>
       <r>   -41.1171     0.0000     6.0000 </r>
       <r>   -40.9342     0.0000     6.0000 </r>
       <r>   -40.7513     0.0000     6.0000 </r>
       <r>   -40.5684     0.0000     6.0000 </r>
       <r>   -40.3855     0.0000     6.0000 </r>
       <r>   -40.2026     0.0000     6.0000 </r>
       <r>   -40.0197     0.0000     6.0000 </r>
       <r>   -39.8368     0.0000     6.0000 </r>
       <r>   -39.6539     0.0000     6.0000 </r>
       <r>   -39.4710     0.0000     6.0000 </r>
       <r>   -39.2881     0.0000     6.0000 </r>
       <r>   -39.1052     0.0000     6.0000 </r>
       <r>   -38.9223     0.0000     6.0000 </r>
       <r>   -38.7394     0.0000     6.0000 </r>
       <r>   -38.5565     0.0000     6.0000 </r>
       <r>   -38.3736     0.0000     6.0000 </r>
       <r>   -38.1907     0.0000     6.0000 </r>
       <r>   -38.0078     0.0000     6.0000 </r>
       <r>   -37.8249     0.0000     6.0000 </r>
       <r>   -37.6420     0.0000     6.0000 </r>
       <r>   -37.4591     0.0000     6.0000 </r>
       <r>   -37.2762     0.0000     6.0000 </r>
       <r>   -37.0933     0.0000     6.0000 </r>
       <r>   -36.9104     0.0000     6.0000 </r>
       <r>   -36.7275     0.0000     6.0000 </r>
       <r>   -36.5446     0.0000     6.0000 </r>
       <r>   -36.3617     0.0000     6.0000 </r>
       <r>   -36.1788     0.0000     6.0000 </r>
       <r>   -35.9959     0.0000     6.0000 </r>
       <r>   -35.8130     0.0000     6.0000 </r>
       <r>   -35.6301     0.0000     6.0000 </r>
       <r>   -35.4472     0.0000     6.0000 </r>
       <r>   -35.2643     0.0000     6.0000 </r>
       <r>   -35.0814     0.0000     6.0000 </r>
       <r>   -34.8985     0.0000     6.0000 </r>
       <r>   -34.7156     0.0000     6.0000 </r>
       <r>   -34.5327     0.0000     6.0000 </r>
       <r>   -34.3498     0.0000     6.0000 </r>
       <r>   -34.1669     0.0000     6.0000 </r>
       <r>   -33.9840     0.0000     6.0000 </r>
       <r>   -33.8011     0.0000     6.0000 </r>
       <r>   -33.6182     0.0000     6.0000 </r>
       <r>   -33.4353     0.0000     6.0000 </r>
       <r>   -33.2524     0.0000     6.0000 </r>
       <r>   -33.0695     0.0000     6.0000 </r>
       <r>   -32.8866     0.0000     6.0000 </r>
       <r>   -32.7037     0.0000     6.0000 </r>
       <r>   -32.5208     0.0000     6.0000 </r>
       <r>   -32.3379     0.0000     6.0000 </r>
       <r>   -32.1550     0.0000     6.0000 </r>
       <r>   -31.9721     0.0000     6.0000 </r>
       <r>   -31.7892     0.0000     6.0000 </r>
       <r>   -31.6063     0.0000     6.0000 </r>
       <r>   -31.4234     0.0000     6.0000 </r>
       <r>   -31.2405     0.0000     6.0000 </r>
       <r>   -31.0576     0.0000     6.0000 </r>
       <r>   -30.8747     0.0000     6.0000 </r>
       <r>   -30.6918     0.0000     6.0000 </r>
       <r>   -30.5089     0.0000     6.0000 </r>
       <r>   -30.3260     0.0000     6.0000 </r>
       <r>   -30.1431     0.0000     6.0000 </r>
       <r>   -29.9602     0.0000     6.0000 </r>
       <r>   -29.7773     0.0000     6.0000 </r>
       <r>   -29.5944     0.0000     6.0000 </r>
       <r>   -29.4115     0.0000     6.0000 </r>
       <r>   -29.2286     0.0026     6.0005 </r>
       <r>   -29.0457     0.0000     8.0000 </r>
       <r>   -28.8628     0.0000     8.0000 </r>
       <r>   -28.6799     0.0000     8.0000 </r>
       <r>   -28.4970     0.0000     8.0000 </r>
       <r>   -28.3141     0.0000     8.0000 </r>
       <r>   -28.1312     0.0000     8.0000 </r>
       <r>   -27.9483     0.0000    10.0000 </r>
       <r>   -27.7654     0.0000    10.0000 </r>
       <r>   -27.5825     0.0000    10.0000 </r>
       <r>   -27.3996     0.0000    10.0000 </r>
       <r>   -27.2167     0.0000    10.0000 </r>
       <r>   -27.0338     0.0000    10.0000 </r>
       <r>   -26.8509    10.9349    12.0000 </r>
       <r>   -26.6680     0.0000    14.0000 </r>
       <r>   -26.4851     0.0000    14.0000 </r>
       <r>   -26.3022     0.0000    14.0000 </r>
       <r>   -26.1193    10.9349    18.0000 </r>
       <r>   -25.9364     0.0000    18.0000 </r>
       <r>   -25.7535     0.0000    18.0000 </r>
       <r>   -25.5706     0.0000    18.0000 </r>
       <r>   -25.3877     0.0000    18.0000 </r>
       <r>   -25.2048     0.0000    18.0000 </r>
       <r>   -25.0219     0.0000    18.0000 </r>
       <r>   -24.8390     0.0000    18.0000 </r>
       <r>   -24.6561     0.0000    18.0000 </r>
       <r>   -24.4732     0.0000    18.0000 </r>
       <r>   -24.2903     0.0000    18.0000 </r>
       <r>   -24.1074     0.0000    18.0000 </r>
       <r>   -23.9245     0.0000    18.0000 </r>
       <r>   -23.7416     0.0000    18.0000 </r>
       <r>   -23.5587    10.7646    19.9689 </r>
       <r>   -23.3758     0.0000    20.0000 </r>
       <r>   -23.1929    10.9347    22.0000 </r>
       <r>   -23.0100     0.0000    22.0000 </r>
       <r>   -22.8271     0.0000    22.0000 </r>
       <r>   -22.6442    10.6250    23.9433 </r>
       <r>   -22.4613    10.8969    25.9930 </r>
       <r>   -22.2784     0.0029    28.0005 </r>
       <r>   -22.0955    10.3110    31.8859 </r>
       <r>   -21.9126     0.0000    32.0000 </r>
       <r>   -21.7297     0.0000    32.0000 </r>
       <r>   -21.5468     7.9088    33.4465 </r>
       <r>   -21.3639     0.0000    34.0000 </r>
       <r>   -21.1810     6.3405    35.1597 </r>
       <r>   -20.9981     0.0000    36.0000 </r>
       <r>   -20.8152    10.9342    37.9999 </r>
       <r>   -20.6323     0.0000    38.0000 </r>
       <r>   -20.4494     0.0000    38.0000 </r>
       <r>   -20.2665     0.0000    38.0000 </r>
       <r>   -20.0836     0.0000    38.0000 </r>
       <r>   -19.9007     0.0000    38.0000 </r>
       <r>   -19.7178     0.0000    38.0000 </r>
       <r>   -19.5349    10.9349    40.0000 </r>
       <r>   -19.3520     2.1374    40.3909 </r>
       <r>   -19.1691     0.0000    42.0000 </r>
       <r>   -18.9862     0.0000    42.0000 </r>
       <r>   -18.8033     0.0000    42.0000 </r>
       <r>   -18.6204     0.0000    44.0000 </r>
       <r>   -18.4375    10.9349    46.0000 </r>
       <r>   -18.2546     8.0092    47.4649 </r>
       <r>   -18.0717     0.6917    48.1265 </r>
       <r>   -17.8888    10.6403    51.9461 </r>
       <r>   -17.7059     1.9649    52.3594 </r>
       <r>   -17.5230     0.0000    56.0000 </r>
       <r>   -17.3401    10.1840    57.8627 </r>
       <r>   -17.1572     0.0000    58.0000 </r>
       <r>   -16.9743     0.0000    58.0000 </r>
       <r>   -16.7914     0.0000    60.0000 </r>
       <r>   -16.6085     0.0000    62.0000 </r>
       <r>   -16.4256     0.0000    62.0000 </r>
       <r>   -16.2427     0.0000    62.0000 </r>
       <r>   -16.0598     0.0000    62.0000 </r>
       <r>   -15.8769    10.9288    63.9989 </r>
       <r>   -15.6940     0.0004    64.0001 </r>
       <r>   -15.5111     0.0000    66.0000 </r>
       <r>   -15.3282    10.9336    67.9998 </r>
       <r>   -15.1453    10.9349    70.0000 </r>
       <r>   -14.9624     0.0000    70.0000 </r>
       <r>   -14.7795    10.9367    72.0003 </r>
       <r>   -14.5966     0.0000    76.0000 </r>
       <r>   -14.4137    10.9349    78.0000 </r>
       <r>   -14.2308    10.9349    80.0000 </r>
       <r>   -14.0479    10.9349    84.0000 </r>
       <r>   -13.8650     0.0059    86.0011 </r>
       <r>   -13.6821     0.0000    90.0000 </r>
       <r>   -13.4992     0.0000    92.0000 </r>
       <r>   -13.3163     0.5859    96.1072 </r>
       <r>   -13.1334    10.9349   100.0000 </r>
       <r>   -12.9505    10.0548   101.8390 </r>
       <r>   -12.7676    19.7754   107.6169 </r>
       <r>   -12.5847     0.0036   108.0007 </r>
       <r>   -12.4018    10.9349   112.0000 </r>
       <r>   -12.2189     0.0000   116.0000 </r>
       <r>   -12.0360    10.9349   118.0000 </r>
       <r>   -11.8531     0.0000   120.0000 </r>
       <r>   -11.6702     0.0000   120.0000 </r>
       <r>   -11.4873     3.3160   122.6065 </r>
       <r>   -11.3044     0.0000   126.0000 </r>
       <r>   -11.1215    21.8568   129.9976 </r>
       <r>   -10.9386     0.0000   130.0000 </r>
       <r>   -10.7557    21.8699   134.0000 </r>
       <r>   -10.5728    10.9351   138.0000 </r>
       <r>   -10.3899     0.0000   140.0000 </r>
       <r>   -10.2070     0.7937   140.1452 </r>
       <r>   -10.0241     0.0000   144.0000 </r>
       <r>    -9.8412    10.9347   146.0000 </r>
       <r>    -9.6583     0.0923   150.0169 </r>
       <r>    -9.4754    10.9349   154.0000 </r>
       <r>    -9.2925     0.0000   154.0000 </r>
       <r>    -9.1096     0.0000   154.0000 </r>
       <r>    -8.9267     0.0000   156.0000 </r>
       <r>    -8.7438    10.9349   158.0000 </r>
       <r>    -8.5609     0.0000   158.0000 </r>
       <r>    -8.3780    10.9349   160.0000 </r>
       <r>    -8.1951     0.0000   160.0000 </r>
       <r>    -8.0122     0.0000   160.0000 </r>
       <r>    -7.8293     0.0000   160.0000 </r>
       <r>    -7.6464     0.0000   160.0000 </r>
       <r>    -7.4635    10.9349   162.0000 </r>
       <r>    -7.2806     0.0001   164.0000 </r>
       <r>    -7.0977     0.0000   166.0000 </r>
       <r>    -6.9148     0.0000   166.0000 </r>
       <r>    -6.7319     0.0000   166.0000 </r>
       <r>    -6.5490     0.0000   166.0000 </r>
       <r>    -6.3661     0.0000   166.0000 </r>
       <r>    -6.1832     0.0000   166.0000 </r>
       <r>    -6.0003     0.0000   166.0000 </r>
       <r>    -5.8174     0.0271   166.0050 </r>
       <r>    -5.6345     0.0000   168.0000 </r>
       <r>    -5.4516     0.0000   168.0000 </r>
       <r>    -5.2687     0.0000   168.0000 </r>
       <r>    -5.0858     0.0324   168.0059 </r>
       <r>    -4.9029     0.0000   170.0000 </r>
       <r>    -4.7200     0.0000   172.0000 </r>
       <r>    -4.5371     0.0000   172.0000 </r>
       <r>    -4.3542     0.0000   174.0000 </r>
       <r>    -4.1713    21.6486   177.9595 </r>
       <r>    -3.9884    10.9349   180.0000 </r>
       <r>    -3.8055     0.0000   182.0000 </r>
       <r>    -3.6226     0.0000   182.0000 </r>
       <r>    -3.4397    10.9349   186.0000 </r>
       <r>    -3.2568    10.9168   187.9967 </r>
       <r>    -3.0739     0.0000   188.0000 </r>
       <r>    -2.8910     0.3932   188.0719 </r>
       <r>    -2.7081    10.9349   192.0000 </r>
       <r>    -2.5252     0.0000   192.0000 </r>
       <r>    -2.3423     0.0000   192.0000 </r>
       <r>    -2.1594     0.0000   192.0000 </r>
       <r>    -1.9765     0.0000   192.0000 </r>
       <r>    -1.7936     0.0000   194.0000 </r>
       <r>    -1.6107    10.9349   196.0000 </r>
       <r>    -1.4278     0.0000   198.0000 </r>
       <r>    -1.2449    10.9349   202.0000 </r>
       <r>    -1.0620     0.0000   206.0000 </r>
       <r>    -0.8791     0.0769   208.0141 </r>
       <r>    -0.6962    11.0351   212.0183 </r>
       <r>    -0.5133    32.7676   219.9932 </r>
       <r>    -0.3304    21.8699   224.0000 </r>
       <r>    -0.1475    10.9347   228.0000 </r>
       <r>     0.0354    10.9494   232.0026 </r>
       <r>     0.2183    10.9349   238.0000 </r>
       <r>     0.4012    11.2221   244.0525 </r>
       <r>     0.5841    10.9353   250.0001 </r>
       <r>     0.7670     0.0000   256.0000 </r>
       <r>     0.9499     0.0000   256.0000 </r>
       <r>     1.1328     0.0000   256.0000 </r>
       <r>     1.3157     0.0000   256.0000 </r>
       <r>     1.4986     0.0000   256.0000 </r>
       <r>     1.6815     0.0000   256.0000 </r>
       <r>     1.8644     0.0000   256.0000 </r>
       <r>     2.0473     0.0000   256.0000 </r>
       <r>     2.2302     0.0000   256.0000 </r>
       <r>     2.4131     0.0000   256.0000 </r>
       <r>     2.5960     0.0000   256.0000 </r>
       <r>     2.7789     0.0000   256.0000 </r>
       <r>     2.9618     0.0000   256.0000 </r>
       <r>     3.1447     0.0000   256.0000 </r>
      </set>
     </set>
    </array>
   </total>
  </dos>
 </calculation>
 <structure name="finalpos" >
  <crystal>
   <varray name="basis" >
    <v>      20.00000000       0.00000000       0.00000000 </v>
    <v>       0.00000000      20.00000000       0.00000000 </v>
    <v>       0.00000000       0.00000000      20.00000000 </v>
   </varray>
   <i name="volume">   8000.00000000 </i>
   <varray name="rec_basis" >
    <v>       0.05000000       0.00000000       0.00000000 </v>
    <v>       0.00000000       0.05000000       0.00000000 </v>
    <v>       0.00000000       0.00000000       0.05000000 </v>
   </varray>
  </crystal>
  <varray name="positions" >
   <v>       0.36211554       0.48866484       0.56417415 </v>
   <v>       0.43793752       0.56561110       0.32757008 </v>
   <v>       0.45581208       0.52423376       0.38051465 </v>
   <v>       0.47372925       0.61530131       0.44986522 </v>
   <v>       0.45595175       0.65963312       0.39935201 </v>
   <v>       0.43785737       0.63472201       0.33675972 </v>
   <v>       0.52307882       0.32955005       0.67474498 </v>
   <v>       0.49710163       0.37190466       0.62618823 </v>
   <v>       0.60227374       0.41933300       0.60593616 </v>
   <v>       0.63096398       0.37761922       0.65422416 </v>
   <v>       0.73964927       0.52855915       0.53463181 </v>
   <v>       0.70082162       0.56612858       0.49044049 </v>
   <v>       0.63257913       0.55363620       0.48652424 </v>
   <v>       0.63952130       0.46927713       0.56732841 </v>
   <v>       0.70843899       0.47974495       0.57314689 </v>
   <v>       0.59134754       0.33224398       0.68903016 </v>
   <v>       0.29334713       0.47671938       0.56830116 </v>
   <v>       0.40790931       0.62211625       0.69058213 </v>
   <v>       0.47619960       0.62606623       0.67660612 </v>
   <v>       0.50295190       0.58590820       0.62668073 </v>
   <v>       0.39825425       0.53800137       0.60426081 </v>
   <v>       0.36904589       0.57756069       0.65398228 </v>
   <v>       0.37289802       0.40579857       0.48223443 </v>
   <v>       0.30486503       0.39173492       0.48443166 </v>
   <v>       0.26422003       0.42785518       0.52821594 </v>
   <v>       0.48989745       0.29510618       0.70074864 </v>
   <v>       0.61334240       0.29968355       0.72673159 </v>
   <v>       0.68424189       0.38076917       0.66478776 </v>
   <v>       0.54225374       0.36233861       0.46129841 </v>
   <v>       0.31579090       0.57306911       0.66420366 </v>
   <v>       0.44416348       0.37118871       0.61364770 </v>
   <v>       0.42392665       0.66833230       0.29622671 </v>
   <v>       0.45642762       0.71313270       0.40950260 </v>
   <v>       0.48809132       0.63358802       0.49907234 </v>
   <v>       0.56912778       0.41808713       0.41480476 </v>
   <v>       0.73767440       0.44963919       0.60776512 </v>
   <v>       0.72277620       0.60481012       0.45904817 </v>
   <v>       0.45570253       0.47012894       0.37468790 </v>
   <v>       0.40614333       0.37888556       0.44852541 </v>
   <v>       0.28443799       0.35306162       0.45202062 </v>
   <v>       0.79326502       0.53703787       0.53892527 </v>
   <v>       0.55589708       0.58769132       0.61440612 </v>
   <v>       0.42412006       0.54328620       0.27986105 </v>
   <v>       0.50894741       0.65984570       0.70400156 </v>
   <v>       0.26265982       0.50568523       0.60265428 </v>
   <v>       0.21072272       0.41813760       0.53105039 </v>
   <v>       0.60090654       0.58197914       0.45254259 </v>
   <v>       0.38544357       0.65296704       0.72941133 </v>
   <v>       0.47424490       0.54794204       0.44140236 </v>
   <v>       0.40180479       0.45306079       0.52108436 </v>
   <v>       0.53520702       0.41608490       0.59173240 </v>
   <v>       0.46544808       0.54254992       0.59041194 </v>
   <v>       0.60138410       0.50650621       0.52397638 </v>
   <v>       0.53073984       0.40562607       0.44215451 </v>
   <v>       0.50088568       0.48087016       0.51934246 </v>
  </varray>
  <varray name="selective"  type="logical" >
   <v type="logical" >  T  T  T </v>
   <v type="logical" >  T  T  T </v>
   <v type="logical" >  T  T  T </v>
   <v type="logical" >  T  T  T </v>
   <v type="logical" >  T  T  T </v>
   <v type="logical" >  T  T  T </v>
   <v type="logical" >  T  T  T </v>
   <v type="logical" >  T  T  T </v>
   <v type="logical" >  T  T  T </v>
   <v type="logical" >  T  T  T </v>
   <v type="logical" >  T  T  T </v>
   <v type="logical" >  T  T  T </v>
   <v type="logical" >  T  T  T </v>
   <v type="logical" >  T  T  T </v>
   <v type="logical" >  T  T  T </v>
   <v type="logical" >  T  T  T </v>
   <v type="logical" >  T  T  T </v>
   <v type="logical" >  T  T  T </v>
   <v type="logical" >  T  T  T </v>
   <v type="logical" >  T  T  T </v>
   <v type="logical" >  T  T  T </v>
   <v type="logical" >  T  T  T </v>
   <v type="logical" >  T  T  T </v>
   <v type="logical" >  T  T  T </v>
   <v type="logical" >  T  T  T </v>
   <v type="logical" >  T  T  T </v>
   <v type="logical" >  T  T  T </v>
   <v type="logical" >  T  T  T </v>
   <v type="logical" >  T  T  T </v>
   <v type="logical" >  T  T  T </v>
   <v type="logical" >  T  T  T </v>
   <v type="logical" >  T  T  T </v>
   <v type="logical" >  T  T  T </v>
   <v type="logical" >  T  T  T </v>
   <v type="logical" >  T  T  T </v>
   <v type="logical" >  T  T  T </v>
   <v type="logical" >  T  T  T </v>
   <v type="logical" >  T  T  T </v>
   <v type="logical" >  T  T  T </v>
   <v type="logical" >  T  T  T </v>
   <v type="logical" >  T  T  T </v>
   <v type="logical" >  T  T  T </v>
   <v type="logical" >  T  T  T </v>
   <v type="logical" >  T  T  T </v>
   <v type="logical" >  T  T  T </v>
   <v type="logical" >  T  T  T </v>
   <v type="logical" >  T  T  T </v>
   <v type="logical" >  T  T  T </v>
   <v type="logical" >  T  T  T </v>
   <v type="logical" >  T  T  T </v>
   <v type="logical" >  T  T  T </v>
   <v type="logical" >  T  T  T </v>
   <v type="logical" >  T  T  T </v>
   <v type="logical" >  T  T  T </v>
   <v type="logical" >  T  T  T </v>
  </varray>
  <nose>
   <v>      -3.00000000       0.00000000       0.00010000       0.00010000 </v>
  </nose>
 </structure>
</modeling>
