  55  55   0   0
  0.1454545E+03  0.2000000E-08  0.2000000E-08  0.2000000E-08  0.5000000E-15
  1.000000000000000E-004
  CAR 
 c2_oh2_ruthenium_mol                    
      3.19454480    -51.68352714  301     -7.00363023      1.00000000
    -51.684  0.0000E+00  0.0000E+00  0.0000E+00  0.0000E+00
    -51.501  0.0000E+00  0.0000E+00  0.0000E+00  0.0000E+00
    -51.318  0.0000E+00  0.0000E+00  0.0000E+00  0.0000E+00
    -51.135  0.0000E+00  0.0000E+00  0.0000E+00  0.0000E+00
    -50.952  0.0000E+00  0.0000E+00  0.0000E+00  0.0000E+00
    -50.769  0.0000E+00  0.0000E+00  0.0000E+00  0.0000E+00
    -50.586  0.0000E+00  0.0000E+00  0.0000E+00  0.0000E+00
    -50.403  0.0000E+00  0.0000E+00  0.0000E+00  0.0000E+00
    -50.220  0.0000E+00  0.0000E+00  0.0000E+00  0.0000E+00
    -50.037  0.0000E+00  0.0000E+00  0.0000E+00  0.0000E+00
    -49.854  0.0000E+00  0.0000E+00  0.0000E+00  0.0000E+00
    -49.671  0.0000E+00  0.0000E+00  0.0000E+00  0.0000E+00
    -49.488  0.0000E+00  0.0000E+00  0.0000E+00  0.0000E+00
    -49.305  0.0000E+00  0.0000E+00  0.0000E+00  0.0000E+00
    -49.123  0.1093E+02  0.1093E+02  0.2000E+01  0.2000E+01
    -48.940  0.0000E+00  0.0000E+00  0.4000E+01  0.4000E+01
    -48.757  0.8624E+01  0.8624E+01  0.5578E+01  0.5578E+01
    -48.574  0.0000E+00  0.0000E+00  0.6000E+01  0.6000E+01
    -48.391  0.0000E+00  0.0000E+00  0.6000E+01  0.6000E+01
    -48.208  0.0000E+00  0.0000E+00  0.6000E+01  0.6000E+01
    -48.025  0.0000E+00  0.0000E+00  0.6000E+01  0.6000E+01
    -47.842  0.0000E+00  0.0000E+00  0.6000E+01  0.6000E+01
    -47.659  0.0000E+00  0.0000E+00  0.6000E+01  0.6000E+01
    -47.476  0.0000E+00  0.0000E+00  0.6000E+01  0.6000E+01
    -47.293  0.0000E+00  0.0000E+00  0.6000E+01  0.6000E+01
    -47.110  0.0000E+00  0.0000E+00  0.6000E+01  0.6000E+01
    -46.927  0.0000E+00  0.0000E+00  0.6000E+01  0.6000E+01
    -46.745  0.0000E+00  0.0000E+00  0.6000E+01  0.6000E+01
    -46.562  0.0000E+00  0.0000E+00  0.6000E+01  0.6000E+01
    -46.379  0.0000E+00  0.0000E+00  0.6000E+01  0.6000E+01
    -46.196  0.0000E+00  0.0000E+00  0.6000E+01  0.6000E+01
    -46.013  0.0000E+00  0.0000E+00  0.6000E+01  0.6000E+01
    -45.830  0.0000E+00  0.0000E+00  0.6000E+01  0.6000E+01
    -45.647  0.0000E+00  0.0000E+00  0.6000E+01  0.6000E+01
    -45.464  0.0000E+00  0.0000E+00  0.6000E+01  0.6000E+01
    -45.281  0.0000E+00  0.0000E+00  0.6000E+01  0.6000E+01
    -45.098  0.0000E+00  0.0000E+00  0.6000E+01  0.6000E+01
    -44.915  0.0000E+00  0.0000E+00  0.6000E+01  0.6000E+01
    -44.732  0.0000E+00  0.0000E+00  0.6000E+01  0.6000E+01
    -44.549  0.0000E+00  0.0000E+00  0.6000E+01  0.6000E+01
    -44.366  0.0000E+00  0.0000E+00  0.6000E+01  0.6000E+01
    -44.184  0.0000E+00  0.0000E+00  0.6000E+01  0.6000E+01
    -44.001  0.0000E+00  0.0000E+00  0.6000E+01  0.6000E+01
    -43.818  0.0000E+00  0.0000E+00  0.6000E+01  0.6000E+01
    -43.635  0.0000E+00  0.0000E+00  0.6000E+01  0.6000E+01
    -43.452  0.0000E+00  0.0000E+00  0.6000E+01  0.6000E+01
    -43.269  0.0000E+00  0.0000E+00  0.6000E+01  0.6000E+01
    -43.086  0.0000E+00  0.0000E+00  0.6000E+01  0.6000E+01
    -42.903  0.0000E+00  0.0000E+00  0.6000E+01  0.6000E+01
    -42.720  0.0000E+00  0.0000E+00  0.6000E+01  0.6000E+01
    -42.537  0.0000E+00  0.0000E+00  0.6000E+01  0.6000E+01
    -42.354  0.0000E+00  0.0000E+00  0.6000E+01  0.6000E+01
    -42.171  0.0000E+00  0.0000E+00  0.6000E+01  0.6000E+01
    -41.988  0.0000E+00  0.0000E+00  0.6000E+01  0.6000E+01
    -41.805  0.0000E+00  0.0000E+00  0.6000E+01  0.6000E+01
    -41.623  0.0000E+00  0.0000E+00  0.6000E+01  0.6000E+01
    -41.440  0.0000E+00  0.0000E+00  0.6000E+01  0.6000E+01
    -41.257  0.0000E+00  0.0000E+00  0.6000E+01  0.6000E+01
    -41.074  0.0000E+00  0.0000E+00  0.6000E+01  0.6000E+01
    -40.891  0.0000E+00  0.0000E+00  0.6000E+01  0.6000E+01
    -40.708  0.0000E+00  0.0000E+00  0.6000E+01  0.6000E+01
    -40.525  0.0000E+00  0.0000E+00  0.6000E+01  0.6000E+01
    -40.342  0.0000E+00  0.0000E+00  0.6000E+01  0.6000E+01
    -40.159  0.0000E+00  0.0000E+00  0.6000E+01  0.6000E+01
    -39.976  0.0000E+00  0.0000E+00  0.6000E+01  0.6000E+01
    -39.793  0.0000E+00  0.0000E+00  0.6000E+01  0.6000E+01
    -39.610  0.0000E+00  0.0000E+00  0.6000E+01  0.6000E+01
    -39.427  0.0000E+00  0.0000E+00  0.6000E+01  0.6000E+01
    -39.244  0.0000E+00  0.0000E+00  0.6000E+01  0.6000E+01
    -39.062  0.0000E+00  0.0000E+00  0.6000E+01  0.6000E+01
    -38.879  0.0000E+00  0.0000E+00  0.6000E+01  0.6000E+01
    -38.696  0.0000E+00  0.0000E+00  0.6000E+01  0.6000E+01
    -38.513  0.0000E+00  0.0000E+00  0.6000E+01  0.6000E+01
    -38.330  0.0000E+00  0.0000E+00  0.6000E+01  0.6000E+01
    -38.147  0.0000E+00  0.0000E+00  0.6000E+01  0.6000E+01
    -37.964  0.0000E+00  0.0000E+00  0.6000E+01  0.6000E+01
    -37.781  0.0000E+00  0.0000E+00  0.6000E+01  0.6000E+01
    -37.598  0.0000E+00  0.0000E+00  0.6000E+01  0.6000E+01
    -37.415  0.0000E+00  0.0000E+00  0.6000E+01  0.6000E+01
    -37.232  0.0000E+00  0.0000E+00  0.6000E+01  0.6000E+01
    -37.049  0.0000E+00  0.0000E+00  0.6000E+01  0.6000E+01
    -36.866  0.0000E+00  0.0000E+00  0.6000E+01  0.6000E+01
    -36.684  0.0000E+00  0.0000E+00  0.6000E+01  0.6000E+01
    -36.501  0.0000E+00  0.0000E+00  0.6000E+01  0.6000E+01
    -36.318  0.0000E+00  0.0000E+00  0.6000E+01  0.6000E+01
    -36.135  0.0000E+00  0.0000E+00  0.6000E+01  0.6000E+01
    -35.952  0.0000E+00  0.0000E+00  0.6000E+01  0.6000E+01
    -35.769  0.0000E+00  0.0000E+00  0.6000E+01  0.6000E+01
    -35.586  0.0000E+00  0.0000E+00  0.6000E+01  0.6000E+01
    -35.403  0.0000E+00  0.0000E+00  0.6000E+01  0.6000E+01
    -35.220  0.0000E+00  0.0000E+00  0.6000E+01  0.6000E+01
    -35.037  0.0000E+00  0.0000E+00  0.6000E+01  0.6000E+01
    -34.854  0.0000E+00  0.0000E+00  0.6000E+01  0.6000E+01
    -34.671  0.0000E+00  0.0000E+00  0.6000E+01  0.6000E+01
    -34.488  0.0000E+00  0.0000E+00  0.6000E+01  0.6000E+01
    -34.305  0.0000E+00  0.0000E+00  0.6000E+01  0.6000E+01
    -34.123  0.0000E+00  0.0000E+00  0.6000E+01  0.6000E+01
    -33.940  0.0000E+00  0.0000E+00  0.6000E+01  0.6000E+01
    -33.757  0.0000E+00  0.0000E+00  0.6000E+01  0.6000E+01
    -33.574  0.0000E+00  0.0000E+00  0.6000E+01  0.6000E+01
    -33.391  0.0000E+00  0.0000E+00  0.6000E+01  0.6000E+01
    -33.208  0.0000E+00  0.0000E+00  0.6000E+01  0.6000E+01
    -33.025  0.0000E+00  0.0000E+00  0.6000E+01  0.6000E+01
    -32.842  0.0000E+00  0.0000E+00  0.6000E+01  0.6000E+01
    -32.659  0.0000E+00  0.0000E+00  0.6000E+01  0.6000E+01
    -32.476  0.0000E+00  0.0000E+00  0.6000E+01  0.6000E+01
    -32.293  0.0000E+00  0.0000E+00  0.6000E+01  0.6000E+01
    -32.110  0.0000E+00  0.0000E+00  0.6000E+01  0.6000E+01
    -31.927  0.0000E+00  0.0000E+00  0.6000E+01  0.6000E+01
    -31.744  0.0000E+00  0.0000E+00  0.6000E+01  0.6000E+01
    -31.562  0.0000E+00  0.0000E+00  0.6000E+01  0.6000E+01
    -31.379  0.0000E+00  0.0000E+00  0.6000E+01  0.6000E+01
    -31.196  0.0000E+00  0.0000E+00  0.6000E+01  0.6000E+01
    -31.013  0.0000E+00  0.0000E+00  0.6000E+01  0.6000E+01
    -30.830  0.0000E+00  0.0000E+00  0.6000E+01  0.6000E+01
    -30.647  0.0000E+00  0.0000E+00  0.6000E+01  0.6000E+01
    -30.464  0.0000E+00  0.0000E+00  0.6000E+01  0.6000E+01
    -30.281  0.0000E+00  0.0000E+00  0.6000E+01  0.6000E+01
    -30.098  0.0000E+00  0.0000E+00  0.6000E+01  0.6000E+01
    -29.915  0.0000E+00  0.0000E+00  0.6000E+01  0.6000E+01
    -29.732  0.0000E+00  0.0000E+00  0.6000E+01  0.6000E+01
    -29.549  0.0000E+00  0.0000E+00  0.6000E+01  0.6000E+01
    -29.366  0.0000E+00  0.0000E+00  0.6000E+01  0.6000E+01
    -29.184  0.3453E-05  0.3452E-05  0.6000E+01  0.6000E+01
    -29.001  0.0000E+00  0.0000E+00  0.8000E+01  0.8000E+01
    -28.818  0.0000E+00  0.0000E+00  0.8000E+01  0.8000E+01
    -28.635  0.0000E+00  0.0000E+00  0.8000E+01  0.8000E+01
    -28.452  0.0000E+00  0.0000E+00  0.8000E+01  0.8000E+01
    -28.269  0.0000E+00  0.0000E+00  0.8000E+01  0.8000E+01
    -28.086  0.0000E+00  0.0000E+00  0.8000E+01  0.8000E+01
    -27.903  0.0000E+00  0.0000E+00  0.8000E+01  0.8000E+01
    -27.720  0.0000E+00  0.0000E+00  0.8000E+01  0.8000E+01
    -27.537  0.0000E+00  0.0000E+00  0.8000E+01  0.8000E+01
    -27.354  0.1093E+02  0.1093E+02  0.1000E+02  0.1000E+02
    -27.171  0.0000E+00  0.0000E+00  0.1000E+02  0.1000E+02
    -26.988  0.0000E+00  0.0000E+00  0.1000E+02  0.1000E+02
    -26.805  0.1093E+02  0.1093E+02  0.1200E+02  0.1200E+02
    -26.623  0.0000E+00  0.0000E+00  0.1200E+02  0.1200E+02
    -26.440  0.1093E+02  0.1093E+02  0.1400E+02  0.1400E+02
    -26.257  0.0000E+00  0.0000E+00  0.1400E+02  0.1400E+02
    -26.074  0.1093E+02  0.1093E+02  0.1800E+02  0.1800E+02
    -25.891  0.0000E+00  0.0000E+00  0.1800E+02  0.1800E+02
    -25.708  0.0000E+00  0.0000E+00  0.1800E+02  0.1800E+02
    -25.525  0.0000E+00  0.0000E+00  0.1800E+02  0.1800E+02
    -25.342  0.0000E+00  0.0000E+00  0.1800E+02  0.1800E+02
    -25.159  0.0000E+00  0.0000E+00  0.1800E+02  0.1800E+02
    -24.976  0.0000E+00  0.0000E+00  0.1800E+02  0.1800E+02
    -24.793  0.0000E+00  0.0000E+00  0.1800E+02  0.1800E+02
    -24.610  0.0000E+00  0.0000E+00  0.1800E+02  0.1800E+02
    -24.427  0.0000E+00  0.0000E+00  0.1800E+02  0.1800E+02
    -24.244  0.0000E+00  0.0000E+00  0.1800E+02  0.1800E+02
    -24.062  0.0000E+00  0.0000E+00  0.2000E+02  0.2000E+02
    -23.879  0.0000E+00  0.0000E+00  0.2000E+02  0.2000E+02
    -23.696  0.0000E+00  0.0000E+00  0.2000E+02  0.2000E+02
    -23.513  0.0000E+00  0.0000E+00  0.2000E+02  0.2000E+02
    -23.330  0.0000E+00  0.0000E+00  0.2000E+02  0.2000E+02
    -23.147  0.0000E+00  0.0000E+00  0.2000E+02  0.2000E+02
    -22.964  0.0000E+00  0.0000E+00  0.2000E+02  0.2000E+02
    -22.781  0.0000E+00  0.0000E+00  0.2200E+02  0.2200E+02
    -22.598  0.0000E+00  0.0000E+00  0.2200E+02  0.2200E+02
    -22.415  0.2175E+02  0.2175E+02  0.2598E+02  0.2598E+02
    -22.232  0.1336E+01  0.1336E+01  0.2824E+02  0.2824E+02
    -22.049  0.4899E+01  0.4899E+01  0.3090E+02  0.3090E+02
    -21.866  0.0000E+00  0.0000E+00  0.3200E+02  0.3200E+02
    -21.684  0.0000E+00  0.0000E+00  0.3200E+02  0.3200E+02
    -21.501  0.0000E+00  0.0000E+00  0.3200E+02  0.3200E+02
    -21.318  0.1091E+02  0.1091E+02  0.3400E+02  0.3400E+02
    -21.135  0.9857E+00  0.9857E+00  0.3418E+02  0.3418E+02
    -20.952  0.0000E+00  0.0000E+00  0.3600E+02  0.3600E+02
    -20.769  0.1093E+02  0.1093E+02  0.3800E+02  0.3800E+02
    -20.586  0.0000E+00  0.0000E+00  0.3800E+02  0.3800E+02
    -20.403  0.0000E+00  0.0000E+00  0.3800E+02  0.3800E+02
    -20.220  0.0000E+00  0.0000E+00  0.3800E+02  0.3800E+02
    -20.037  0.0000E+00  0.0000E+00  0.3800E+02  0.3800E+02
    -19.854  0.0000E+00  0.0000E+00  0.3800E+02  0.3800E+02
    -19.671  0.0000E+00  0.0000E+00  0.3800E+02  0.3800E+02
    -19.488  0.3962E-01  0.3962E-01  0.3801E+02  0.3801E+02
    -19.305  0.0000E+00  0.0000E+00  0.4200E+02  0.4200E+02
    -19.123  0.0000E+00  0.0000E+00  0.4200E+02  0.4200E+02
    -18.940  0.0000E+00  0.0000E+00  0.4200E+02  0.4200E+02
    -18.757  0.5026E-03  0.5026E-03  0.4200E+02  0.4200E+02
    -18.574  0.0000E+00  0.0000E+00  0.4400E+02  0.4400E+02
    -18.391  0.1093E+02  0.1093E+02  0.4600E+02  0.4600E+02
    -18.208  0.0000E+00  0.0000E+00  0.4600E+02  0.4600E+02
    -18.025  0.1093E+02  0.1093E+02  0.4800E+02  0.4800E+02
    -17.842  0.3079E+01  0.3079E+01  0.5056E+02  0.5056E+02
    -17.659  0.2339E+00  0.2339E+00  0.5204E+02  0.5204E+02
    -17.476  0.0000E+00  0.0000E+00  0.5600E+02  0.5600E+02
    -17.293  0.1092E+02  0.1092E+02  0.5800E+02  0.5800E+02
    -17.110  0.0000E+00  0.0000E+00  0.5800E+02  0.5800E+02
    -16.927  0.0000E+00  0.0000E+00  0.5800E+02  0.5800E+02
    -16.744  0.1093E+02  0.1093E+02  0.6000E+02  0.6000E+02
    -16.562  0.1619E+01  0.1619E+01  0.6030E+02  0.6030E+02
    -16.379  0.0000E+00  0.0000E+00  0.6200E+02  0.6200E+02
    -16.196  0.0000E+00  0.0000E+00  0.6200E+02  0.6200E+02
    -16.013  0.0000E+00  0.0000E+00  0.6200E+02  0.6200E+02
    -15.830  0.1093E+02  0.1093E+02  0.6400E+02  0.6400E+02
    -15.647  0.0000E+00  0.0000E+00  0.6600E+02  0.6600E+02
    -15.464  0.0000E+00  0.0000E+00  0.6600E+02  0.6600E+02
    -15.281  0.1093E+02  0.1093E+02  0.6800E+02  0.6800E+02
    -15.098  0.0000E+00  0.0000E+00  0.7000E+02  0.7000E+02
    -14.915  0.0000E+00  0.0000E+00  0.7000E+02  0.7000E+02
    -14.732  0.1093E+02  0.1093E+02  0.7200E+02  0.7200E+02
    -14.549  0.0000E+00  0.0000E+00  0.7600E+02  0.7600E+02
    -14.366  0.0000E+00  0.0000E+00  0.7600E+02  0.7600E+02
    -14.184  0.1093E+02  0.1093E+02  0.8000E+02  0.8000E+02
    -14.001  0.1742E+02  0.1742E+02  0.8319E+02  0.8319E+02
    -13.818  0.1094E+02  0.1094E+02  0.8600E+02  0.8600E+02
    -13.635  0.1093E+02  0.1093E+02  0.9200E+02  0.9200E+02
    -13.452  0.0000E+00  0.0000E+00  0.9200E+02  0.9200E+02
    -13.269  0.1305E+02  0.1305E+02  0.9639E+02  0.9639E+02
    -13.086  0.0000E+00  0.0000E+00  0.1000E+03  0.1000E+03
    -12.903  0.2187E+02  0.2187E+02  0.1040E+03  0.1040E+03
    -12.720  0.1093E+02  0.1093E+02  0.1060E+03  0.1060E+03
    -12.537  0.6069E-15  0.6069E-15  0.1080E+03  0.1080E+03
    -12.354  0.1093E+02  0.1093E+02  0.1120E+03  0.1120E+03
    -12.171  0.8822E-05  0.8822E-05  0.1160E+03  0.1160E+03
    -11.988  0.1093E+02  0.1093E+02  0.1200E+03  0.1200E+03
    -11.805  0.0000E+00  0.0000E+00  0.1200E+03  0.1200E+03
    -11.623  0.1093E+02  0.1093E+02  0.1220E+03  0.1220E+03
    -11.440  0.0000E+00  0.0000E+00  0.1220E+03  0.1220E+03
    -11.257  0.2138E+02  0.2138E+02  0.1259E+03  0.1259E+03
    -11.074  0.2186E+02  0.2186E+02  0.1320E+03  0.1320E+03
    -10.891  0.0000E+00  0.0000E+00  0.1320E+03  0.1320E+03
    -10.708  0.2187E+02  0.2187E+02  0.1360E+03  0.1360E+03
    -10.525  0.1093E+02  0.1093E+02  0.1380E+03  0.1380E+03
    -10.342  0.0000E+00  0.0000E+00  0.1380E+03  0.1380E+03
    -10.159  0.0000E+00  0.0000E+00  0.1400E+03  0.1400E+03
     -9.976  0.1434E-01  0.1434E-01  0.1400E+03  0.1400E+03
     -9.793  0.1095E+02  0.1095E+02  0.1460E+03  0.1460E+03
     -9.610  0.1093E+02  0.1093E+02  0.1520E+03  0.1520E+03
     -9.427  0.3972E+00  0.3972E+00  0.1521E+03  0.1521E+03
     -9.244  0.0000E+00  0.0000E+00  0.1540E+03  0.1540E+03
     -9.062  0.0000E+00  0.0000E+00  0.1540E+03  0.1540E+03
     -8.879  0.8697E-07  0.8697E-07  0.1540E+03  0.1540E+03
     -8.696  0.1093E+02  0.1093E+02  0.1580E+03  0.1580E+03
     -8.513  0.0000E+00  0.0000E+00  0.1580E+03  0.1580E+03
     -8.330  0.1093E+02  0.1093E+02  0.1600E+03  0.1600E+03
     -8.147  0.0000E+00  0.0000E+00  0.1600E+03  0.1600E+03
     -7.964  0.0000E+00  0.0000E+00  0.1600E+03  0.1600E+03
     -7.781  0.0000E+00  0.0000E+00  0.1600E+03  0.1600E+03
     -7.598  0.0000E+00  0.0000E+00  0.1600E+03  0.1600E+03
     -7.415  0.0000E+00  0.0000E+00  0.1620E+03  0.1620E+03
     -7.232  0.1093E+02  0.1093E+02  0.1640E+03  0.1640E+03
     -7.049  0.0000E+00  0.0000E+00  0.1660E+03  0.1660E+03
     -6.866  0.0000E+00  0.0000E+00  0.1660E+03  0.1660E+03
     -6.684  0.0000E+00  0.0000E+00  0.1660E+03  0.1660E+03
     -6.501  0.0000E+00  0.0000E+00  0.1660E+03  0.1660E+03
     -6.318  0.0000E+00  0.0000E+00  0.1660E+03  0.1660E+03
     -6.135  0.0000E+00  0.0000E+00  0.1660E+03  0.1660E+03
     -5.952  0.0000E+00  0.0000E+00  0.1660E+03  0.1660E+03
     -5.769  0.0000E+00  0.0000E+00  0.1660E+03  0.1660E+03
     -5.586  0.0000E+00  0.0000E+00  0.1680E+03  0.1680E+03
     -5.403  0.0000E+00  0.0000E+00  0.1680E+03  0.1680E+03
     -5.220  0.0000E+00  0.0000E+00  0.1680E+03  0.1680E+03
     -5.037  0.1318E+02  0.1318E+02  0.1704E+03  0.1704E+03
     -4.854  0.0000E+00  0.0000E+00  0.1720E+03  0.1720E+03
     -4.671  0.0000E+00  0.0000E+00  0.1720E+03  0.1720E+03
     -4.488  0.0000E+00  0.0000E+00  0.1720E+03  0.1720E+03
     -4.305  0.1403E-09  0.1403E-09  0.1720E+03  0.1720E+03
     -4.123  0.1967E+02  0.1967E+02  0.1776E+03  0.1776E+03
     -3.940  0.1648E+02  0.1648E+02  0.1810E+03  0.1810E+03
     -3.757  0.0000E+00  0.0000E+00  0.1820E+03  0.1820E+03
     -3.574  0.0000E+00  0.0000E+00  0.1820E+03  0.1820E+03
     -3.391  0.0000E+00  0.0000E+00  0.1840E+03  0.1840E+03
     -3.208  0.1093E+02  0.1093E+02  0.1860E+03  0.1860E+03
     -3.025  0.0000E+00  0.0000E+00  0.1880E+03  0.1880E+03
     -2.842  0.1652E-07  0.1652E-07  0.1880E+03  0.1880E+03
     -2.659  0.0000E+00  0.0000E+00  0.1920E+03  0.1920E+03
     -2.476  0.0000E+00  0.0000E+00  0.1920E+03  0.1920E+03
     -2.293  0.0000E+00  0.0000E+00  0.1920E+03  0.1920E+03
     -2.110  0.0000E+00  0.0000E+00  0.1920E+03  0.1920E+03
     -1.927  0.0000E+00  0.0000E+00  0.1940E+03  0.1940E+03
     -1.744  0.0000E+00  0.0000E+00  0.1940E+03  0.1940E+03
     -1.562  0.2156E-08  0.2156E-08  0.1960E+03  0.1960E+03
     -1.379  0.1093E+02  0.1093E+02  0.2000E+03  0.2000E+03
     -1.196  0.2186E+02  0.2186E+02  0.2040E+03  0.2040E+03
     -1.013  0.3953E+00  0.3952E+00  0.2061E+03  0.2061E+03
     -0.830  0.2183E+02  0.2183E+02  0.2120E+03  0.2120E+03
     -0.647  0.1015E+02  0.1014E+02  0.2139E+03  0.2139E+03
     -0.464  0.2187E+02  0.2187E+02  0.2200E+03  0.2200E+03
     -0.281  0.1093E+02  0.1093E+02  0.2240E+03  0.2240E+03
     -0.098  0.1093E+02  0.1093E+02  0.2280E+03  0.2280E+03
      0.085  0.1256E-01  0.1255E-01  0.2320E+03  0.2320E+03
      0.268  0.7061E+01  0.7059E+01  0.2373E+03  0.2373E+03
      0.451  0.2122E+02  0.2122E+02  0.2459E+03  0.2459E+03
      0.634  0.1882E+02  0.1877E+02  0.2514E+03  0.2514E+03
      0.816  0.0000E+00  0.0000E+00  0.2560E+03  0.2560E+03
      0.999  0.0000E+00  0.0000E+00  0.2560E+03  0.2560E+03
      1.182  0.0000E+00  0.0000E+00  0.2560E+03  0.2560E+03
      1.365  0.0000E+00  0.0000E+00  0.2560E+03  0.2560E+03
      1.548  0.0000E+00  0.0000E+00  0.2560E+03  0.2560E+03
      1.731  0.0000E+00  0.0000E+00  0.2560E+03  0.2560E+03
      1.914  0.0000E+00  0.0000E+00  0.2560E+03  0.2560E+03
      2.097  0.0000E+00  0.0000E+00  0.2560E+03  0.2560E+03
      2.280  0.0000E+00  0.0000E+00  0.2560E+03  0.2560E+03
      2.463  0.0000E+00  0.0000E+00  0.2560E+03  0.2560E+03
      2.646  0.0000E+00  0.0000E+00  0.2560E+03  0.2560E+03
      2.829  0.0000E+00  0.0000E+00  0.2560E+03  0.2560E+03
      3.012  0.0000E+00  0.0000E+00  0.2560E+03  0.2560E+03
      3.195  0.0000E+00  0.0000E+00  0.2560E+03  0.2560E+03
