   55   55    1    2
  0.1454545E+03  0.2000000E-08  0.2000000E-08  0.2000000E-08  0.5000000E-15
  1.000000000000000E-004
  CAR 
 c2_oh2_ruthenium_mol                    
    166      1    128
 
  0.0000000E+00  0.0000000E+00  0.0000000E+00  0.1000000E+01
    1      -49.189069    -49.189069
    2      -49.037701    -49.037702
    3      -48.762370    -48.762370
    4      -29.148294    -29.148294
    5      -27.432369    -27.432369
    6      -26.844238    -26.844238
    7      -26.491559    -26.491559
    8      -26.178052    -26.178053
    9      -26.148106    -26.148106
   10      -24.182448    -24.182448
   11      -22.878063    -22.878063
   12      -22.474463    -22.474463
   13      -22.431483    -22.431483
   14      -22.321649    -22.321649
   15      -22.224065    -22.224065
   16      -22.048446    -22.048446
   17      -21.337541    -21.337541
   18      -21.125260    -21.125260
   19      -20.805471    -20.805471
   20      -19.469404    -19.469404
   21      -19.414084    -19.414084
   22      -18.729030    -18.729030
   23      -18.464208    -18.464208
   24      -18.092917    -18.092917
   25      -17.948111    -17.948111
   26      -17.837963    -17.837963
   27      -17.644798    -17.644798
   28      -17.606925    -17.606925
   29      -17.315243    -17.315243
   30      -16.819102    -16.819102
   31      -16.554174    -16.554174
   32      -15.871642    -15.871642
   33      -15.731412    -15.731412
   34      -15.335284    -15.335284
   35      -15.251569    -15.251569
   36      -14.773560    -14.773560
   37      -14.694852    -14.694852
   38      -14.681770    -14.681770
   39      -14.305941    -14.305941
   40      -14.239443    -14.239443
   41      -14.059356    -14.059356
   42      -14.002261    -14.002261
   43      -13.879677    -13.879677
   44      -13.794858    -13.794858
   45      -13.762174    -13.762174
   46      -13.660619    -13.660619
   47      -13.380850    -13.380850
   48      -13.280835    -13.280835
   49      -13.263854    -13.263854
   50      -13.196590    -13.196590
   51      -12.974552    -12.974552
   52      -12.932241    -12.932241
   53      -12.749276    -12.749276
   54      -12.686350    -12.686350
   55      -12.478240    -12.478240
   56      -12.434169    -12.434169
   57      -12.311894    -12.311894
   58      -12.289683    -12.289683
   59      -12.137398    -12.137398
   60      -12.030393    -12.030393
   61      -11.660920    -11.660920
   62      -11.322149    -11.322149
   63      -11.268246    -11.268246
   64      -11.239156    -11.239156
   65      -11.118500    -11.118500
   66      -11.095496    -11.095496
   67      -10.763055    -10.763055
   68      -10.756496    -10.756496
   69      -10.595801    -10.595801
   70      -10.275477    -10.275477
   71       -9.954918     -9.954918
   72       -9.928932     -9.928931
   73       -9.849886     -9.849886
   74       -9.772662     -9.772662
   75       -9.737917     -9.737917
   76       -9.649097     -9.649097
   77       -9.414719     -9.414719
   78       -8.838669     -8.838669
   79       -8.742900     -8.742900
   80       -8.406495     -8.406495
   81       -7.530440     -7.530440
   82       -7.304282     -7.304282
   83       -7.171732     -7.171733
   84       -5.672122     -5.672122
   85       -5.072579     -5.072579
   86       -5.031343     -5.031343
   87       -4.258298     -4.258298
   88       -4.169650     -4.169650
   89       -4.128471     -4.128471
   90       -3.993669     -3.993669
   91       -3.939728     -3.939728
   92       -3.506272     -3.506272
   93       -3.275854     -3.275854
   94       -3.110645     -3.110645
   95       -2.800109     -2.800109
   96       -2.747307     -2.747307
   97       -2.021018     -2.021016
   98       -1.654792     -1.654792
   99       -1.517317     -1.517317
  100       -1.427013     -1.427010
  101       -1.268547     -1.268547
  102       -1.221125     -1.221123
  103       -1.101597     -1.101596
  104       -1.000066     -1.000065
  105       -0.900258     -0.900254
  106       -0.848819     -0.848819
  107       -0.657246     -0.657244
  108       -0.618021     -0.618020
  109       -0.536538     -0.536537
  110       -0.528552     -0.528551
  111       -0.398182     -0.398179
  112       -0.334712     -0.334709
  113       -0.234898     -0.234895
  114       -0.129628     -0.129625
  115       -0.021533     -0.021531
  116       -0.004076     -0.004073
  117        0.106346      0.106347
  118        0.170007      0.170009
  119        0.265073      0.265077
  120        0.292890      0.292892
  121        0.330069      0.330073
  122        0.394344      0.394350
  123        0.439594      0.439595
  124        0.477701      0.477708
  125        0.584698      0.584760
  126        0.629423      0.629518
  127        0.656911      0.656390
  128        0.700087      0.695135
