       N       E                     dE             d eps       ncg     rms          rms(c)
DAV:   1     0.908423877671E+03    0.90842E+03   -0.58820E+04   768   0.974E+02
DAV:   2    -0.683615208219E+02   -0.97679E+03   -0.97024E+03  1024   0.160E+02
DAV:   3    -0.392194059004E+03   -0.32383E+03   -0.32325E+03   768   0.848E+01
DAV:   4    -0.412423271560E+03   -0.20229E+02   -0.20200E+02   640   0.282E+01
DAV:   5    -0.412734251923E+03   -0.31098E+00   -0.31084E+00   896   0.371E+00    0.571E+01
DAV:   6    -0.392983572952E+03    0.19751E+02   -0.32932E+02   512   0.228E+01    0.382E+01
DAV:   7    -0.382773515884E+03    0.10210E+02   -0.23708E+01   768   0.199E+01    0.234E+01
DAV:   8    -0.378805696479E+03    0.39678E+01   -0.16898E+01   768   0.926E+00    0.935E+00
DAV:   9    -0.377679545128E+03    0.11262E+01   -0.70564E+00   768   0.497E+00    0.356E+00
DAV:  10    -0.377650097074E+03    0.29448E-01   -0.27244E-01   768   0.131E+00    0.257E+00
DAV:  11    -0.377510421185E+03    0.13968E+00   -0.17435E-01   768   0.989E-01    0.110E+00
DAV:  12    -0.377435862381E+03    0.74559E-01   -0.11033E-01   768   0.733E-01    0.682E-01
DAV:  13    -0.377412151854E+03    0.23711E-01   -0.25767E-02   768   0.439E-01    0.455E-01
DAV:  14    -0.377405839417E+03    0.63124E-02   -0.11205E-02   768   0.271E-01    0.289E-01
DAV:  15    -0.377409142366E+03   -0.33029E-02   -0.44199E-03   768   0.186E-01    0.215E-01
DAV:  16    -0.377418975225E+03   -0.98329E-02   -0.32456E-03   768   0.161E-01    0.104E-01
DAV:  17    -0.377425520239E+03   -0.65450E-02   -0.10130E-03   768   0.956E-02    0.794E-02
DAV:  18    -0.377431245836E+03   -0.57256E-02   -0.63601E-04   768   0.724E-02    0.439E-02
DAV:  19    -0.377433652159E+03   -0.24063E-02   -0.13872E-04   768   0.348E-02    0.327E-02
DAV:  20    -0.377435498886E+03   -0.18467E-02   -0.50970E-05   768   0.225E-02    0.230E-02
DAV:  21    -0.377437417225E+03   -0.19183E-02   -0.65491E-05   768   0.215E-02    0.114E-02
DAV:  22    -0.377438219589E+03   -0.80236E-03   -0.23098E-05   768   0.114E-02    0.976E-03
DAV:  23    -0.377438734173E+03   -0.51458E-03   -0.10160E-05   640   0.730E-03    0.495E-03
DAV:  24    -0.377439075793E+03   -0.34162E-03   -0.84597E-06   640   0.577E-03    0.254E-03
DAV:  25    -0.377439220517E+03   -0.14472E-03   -0.20803E-06   640   0.286E-03    0.182E-03
DAV:  26    -0.377439337003E+03   -0.11649E-03   -0.21898E-06   640   0.261E-03    0.128E-03
DAV:  27    -0.377439377850E+03   -0.40847E-04   -0.48286E-07   640   0.137E-03    0.759E-04
DAV:  28    -0.377439410361E+03   -0.32511E-04   -0.37844E-07   640   0.117E-03    0.485E-04
DAV:  29    -0.377439419476E+03   -0.91146E-05    0.18082E-08   640   0.555E-04
   1 F= -.37743942E+03 E0= -.37743942E+03  d E =-.106412-124  mag=     0.0000
