 vasp.5.3.5 31Mar14 (build Apr 08 2014 12:00:03) complex                        
  
 VASP binary ID code NSC-NSCPATCH-BUILD02 date 2017.03.15  18:51:16
 running on   64 total cores
 distrk:  each k-point on   64 cores,    1 groups
 distr:  one band on NCORES_PER_BAND=   1 cores,   64 groups


--------------------------------------------------------------------------------------------------------


 INCAR:
 POTCAR:    PAW_PBE C_h 06Feb2004                 
 POTCAR:    PAW_PBE C_h 06Feb2004                 
 POTCAR:    PAW_PBE H 15Jun2001                   
 POTCAR:    PAW_PBE N_h 06Feb2004                 
 POTCAR:    PAW_PBE O_h 06Feb2004                 
 POTCAR:    PAW_PBE Ru_pv 28Jan2005               

 ----------------------------------------------------------------------------- 
|                                                                             |
|           W    W    AA    RRRRR   N    N  II  N    N   GGGG   !!!           |
|           W    W   A  A   R    R  NN   N  II  NN   N  G    G  !!!           |
|           W    W  A    A  R    R  N N  N  II  N N  N  G       !!!           |
|           W WW W  AAAAAA  RRRRR   N  N N  II  N  N N  G  GGG   !            |
|           WW  WW  A    A  R   R   N   NN  II  N   NN  G    G                |
|           W    W  A    A  R    R  N    N  II  N    N   GGGG   !!!           |
|                                                                             |
|      For optimal performance we recommend to set                            |
|        NCORE= 4 - approx SQRT( number of cores)                             |
|      NCORE specifies how many cores store one orbital (NPAR=cpu/NCORE).     |
|      This setting can  greatly improve the performance of VASP for DFT.     |
|      The default, NPAR=number of cores might be grossly inefficient         |
|      on modern multi-core architectures or massively parallel machines.     |
|      Do your own testing !!!!                                               |
|      Unfortunately you need to use the default for GW and RPA calculations. |
|      (for HF NCORE is supported but not extensively tested yet)             |
|                                                                             |
 ----------------------------------------------------------------------------- 

 POTCAR:    PAW_PBE C_h 06Feb2004                 
   VRHFIN =C: s2p2                                                              
   LEXCH  = PE                                                                  
   EATOM  =   147.1560 eV,   10.8157 Ry                                         
                                                                                
   TITEL  = PAW_PBE C_h 06Feb2004                                               
   LULTRA =        F    use ultrasoft PP ?                                      
   IUNSCR =        1    unscreen: 0-lin 1-nonlin 2-no                           
   RPACOR =    0.800    partial core radius                                     
   POMASS =   12.011; ZVAL   =    4.000    mass and valenz                      
   RCORE  =    1.100    outmost cutoff radius                                   
   RWIGS  =    1.630; RWIGS  =    0.863    wigner-seitz radius (au A)           
   ENMAX  =  700.000; ENMIN  =  500.000 eV                                      
   ICORE  =        2    local potential                                         
   LCOR   =        T    correct aug charges                                     
   LPAW   =        T    paw PP                                                  
   EAUG   =  946.768                                                            
   DEXC   =    0.000                                                            
   RMAX   =    1.128    core radius for proj-oper                               
   RAUG   =    1.300    factor for augmentation sphere                          
   RDEP   =    1.162    radius for radial grids                                 
   RDEPT  =    1.088    core radius for aug-charge                              
                                                                                
   Atomic configuration                                                         
    4 entries                                                                   
     n  l   j            E        occ.                                          
     1  0  0.50      -273.3789   2.0000                                         
     2  0  0.50       -13.7508   2.0000                                         
     2  1  0.50        -5.2854   2.0000                                         
     3  2  1.50        -5.4423   0.0000                                         
   Description                                                                  
     l       E           TYP  RCUT    TYP  RCUT                                 
     0    -13.7508458     23  1.100                                             
     0     -8.2022199     23  1.100                                             
     1     -5.2854383     23  1.100                                             
     1      1.1560700     23  1.100                                             
     2     -5.4423304      7  1.100                                             
  local pseudopotential read in
  partial core-charges read in
  partial kinetic energy density read in
  atomic valenz-charges read in
  non local Contribution for L=           0  read in
    real space projection operators read in
  non local Contribution for L=           0  read in
    real space projection operators read in
  non local Contribution for L=           1  read in
    real space projection operators read in
  non local Contribution for L=           1  read in
    real space projection operators read in
    PAW grid and wavefunctions read in
 
   number of l-projection  operators is LMAX  =           4
   number of lm-projection operators is LMMAX =           8
 
 POTCAR:    PAW_PBE C_h 06Feb2004                 
   VRHFIN =C: s2p2                                                              
   LEXCH  = PE                                                                  
   EATOM  =   147.1560 eV,   10.8157 Ry                                         
                                                                                
   TITEL  = PAW_PBE C_h 06Feb2004                                               
   LULTRA =        F    use ultrasoft PP ?                                      
   IUNSCR =        1    unscreen: 0-lin 1-nonlin 2-no                           
   RPACOR =    0.800    partial core radius                                     
   POMASS =   12.011; ZVAL   =    4.000    mass and valenz                      
   RCORE  =    1.100    outmost cutoff radius                                   
   RWIGS  =    1.630; RWIGS  =    0.863    wigner-seitz radius (au A)           
   ENMAX  =  700.000; ENMIN  =  500.000 eV                                      
   ICORE  =        2    local potential                                         
   LCOR   =        T    correct aug charges                                     
   LPAW   =        T    paw PP                                                  
   EAUG   =  946.768                                                            
   DEXC   =    0.000                                                            
   RMAX   =    1.128    core radius for proj-oper                               
   RAUG   =    1.300    factor for augmentation sphere                          
   RDEP   =    1.162    radius for radial grids                                 
   RDEPT  =    1.088    core radius for aug-charge                              
                                                                                
   Atomic configuration                                                         
    4 entries                                                                   
     n  l   j            E        occ.                                          
     1  0  0.50      -273.3789   2.0000                                         
     2  0  0.50       -13.7508   2.0000                                         
     2  1  0.50        -5.2854   2.0000                                         
     3  2  1.50        -5.4423   0.0000                                         
   Description                                                                  
     l       E           TYP  RCUT    TYP  RCUT                                 
     0    -13.7508458     23  1.100                                             
     0     -8.2022199     23  1.100                                             
     1     -5.2854383     23  1.100                                             
     1      1.1560700     23  1.100                                             
     2     -5.4423304      7  1.100                                             
  local pseudopotential read in
  partial core-charges read in
  partial kinetic energy density read in
  atomic valenz-charges read in
  non local Contribution for L=           0  read in
    real space projection operators read in
  non local Contribution for L=           0  read in
    real space projection operators read in
  non local Contribution for L=           1  read in
    real space projection operators read in
  non local Contribution for L=           1  read in
    real space projection operators read in
    PAW grid and wavefunctions read in
 
   number of l-projection  operators is LMAX  =           4
   number of lm-projection operators is LMMAX =           8
 
 POTCAR:    PAW_PBE H 15Jun2001                   
   VRHFIN =H: ultrasoft test                                                    
   LEXCH  = PE                                                                  
   EATOM  =    12.4884 eV,    0.9179 Ry                                         
                                                                                
   TITEL  = PAW_PBE H 15Jun2001                                                 
   LULTRA =        F    use ultrasoft PP ?                                      
   IUNSCR =        0    unscreen: 0-lin 1-nonlin 2-no                           
   RPACOR =    0.000    partial core radius                                     
   POMASS =    1.000; ZVAL   =    1.000    mass and valenz                      
   RCORE  =    1.100    outmost cutoff radius                                   
   RWIGS  =    0.700; RWIGS  =    0.370    wigner-seitz radius (au A)           
   ENMAX  =  250.000; ENMIN  =  200.000 eV                                      
   RCLOC  =    0.701    cutoff for local pot                                    
   LCOR   =        T    correct aug charges                                     
   LPAW   =        T    paw PP                                                  
   EAUG   =  400.000                                                            
   RMAX   =    1.123    core radius for proj-oper                               
   RAUG   =    1.200    factor for augmentation sphere                          
   RDEP   =    1.112    radius for radial grids                                 
   RDEPT  =    0.926    core radius for aug-charge                              
                                                                                
   Atomic configuration                                                         
    2 entries                                                                   
     n  l   j            E        occ.                                          
     1  0  0.50        -6.4927   1.0000                                         
     2  1  0.50        -3.4015   0.0000                                         
   Description                                                                  
     l       E           TYP  RCUT    TYP  RCUT                                 
     0     -6.4927494     23  1.100                                             
     0      6.8029130     23  1.100                                             
     1     -4.0817478     23  1.100                                             
  local pseudopotential read in
  atomic valenz-charges read in
  non local Contribution for L=           0  read in
    real space projection operators read in
  non local Contribution for L=           0  read in
    real space projection operators read in
  non local Contribution for L=           1  read in
    real space projection operators read in
    PAW grid and wavefunctions read in
 
   number of l-projection  operators is LMAX  =           3
   number of lm-projection operators is LMMAX =           5
 
 POTCAR:    PAW_PBE N_h 06Feb2004                 
   VRHFIN =N: s2p3                                                              
   LEXCH  = PE                                                                  
   EATOM  =   264.5486 eV,   19.4438 Ry                                         
                                                                                
   TITEL  = PAW_PBE N_h 06Feb2004                                               
   LULTRA =        F    use ultrasoft PP ?                                      
   IUNSCR =        1    unscreen: 0-lin 1-nonlin 2-no                           
   RPACOR =    0.800    partial core radius                                     
   POMASS =   14.001; ZVAL   =    5.000    mass and valenz                      
   RCORE  =    1.100    outmost cutoff radius                                   
   RWIGS  =    1.480; RWIGS  =    0.783    wigner-seitz radius (au A)           
   ENMAX  =  700.000; ENMIN  =  500.000 eV                                      
   ICORE  =        2    local potential                                         
   LCOR   =        T    correct aug charges                                     
   LPAW   =        T    paw PP                                                  
   EAUG   =  904.640                                                            
   DEXC   =    0.000                                                            
   RMAX   =    1.127    core radius for proj-oper                               
   RAUG   =    1.300    factor for augmentation sphere                          
   RDEP   =    1.115    radius for radial grids                                 
   RDEPT  =    1.106    core radius for aug-charge                              
                                                                                
   Atomic configuration                                                         
    4 entries                                                                   
     n  l   j            E        occ.                                          
     1  0  0.50      -384.7179   2.0000                                         
     2  0  0.50       -18.5828   2.0000                                         
     2  1  0.50        -7.0898   3.0000                                         
     3  2  1.50        -6.8029   0.0000                                         
   Description                                                                  
     l       E           TYP  RCUT    TYP  RCUT                                 
     0    -18.5828117     23  1.100                                             
     0    -15.0750597     23  1.100                                             
     1     -7.0897851     23  1.100                                             
     1     -1.9663412     23  1.100                                             
     2     -6.8029130      7  1.100                                             
  local pseudopotential read in
  partial core-charges read in
  partial kinetic energy density read in
  kinetic energy density of atom read in
  atomic valenz-charges read in
  non local Contribution for L=           0  read in
    real space projection operators read in
  non local Contribution for L=           0  read in
    real space projection operators read in
  non local Contribution for L=           1  read in
    real space projection operators read in
  non local Contribution for L=           1  read in
    real space projection operators read in
    PAW grid and wavefunctions read in
 
   number of l-projection  operators is LMAX  =           4
   number of lm-projection operators is LMMAX =           8
 
 POTCAR:    PAW_PBE O_h 06Feb2004                 
   VRHFIN =O: s2p4                                                              
   LEXCH  = PE                                                                  
   EATOM  =   432.3788 eV,   31.7789 Ry                                         
                                                                                
   TITEL  = PAW_PBE O_h 06Feb2004                                               
   LULTRA =        F    use ultrasoft PP ?                                      
   IUNSCR =        1    unscreen: 0-lin 1-nonlin 2-no                           
   RPACOR =    0.800    partial core radius                                     
   POMASS =   16.000; ZVAL   =    6.000    mass and valenz                      
   RCORE  =    1.100    outmost cutoff radius                                   
   RWIGS  =    1.400; RWIGS  =    0.741    wigner-seitz radius (au A)           
   ENMAX  =  700.000; ENMIN  =  500.000 eV                                      
   ICORE  =        2    local potential                                         
   LCOR   =        T    correct aug charges                                     
   LPAW   =        T    paw PP                                                  
   EAUG   =  888.804                                                            
   DEXC   =    0.000                                                            
   RMAX   =    1.128    core radius for proj-oper                               
   RAUG   =    1.300    factor for augmentation sphere                          
   RDEP   =    1.125    radius for radial grids                                 
   RDEPT  =    1.088    core radius for aug-charge                              
                                                                                
   Atomic configuration                                                         
    4 entries                                                                   
     n  l   j            E        occ.                                          
     1  0  0.50      -514.6923   2.0000                                         
     2  0  0.50       -23.9615   2.0000                                         
     2  1  0.50        -9.0305   4.0000                                         
     3  2  1.50        -9.5241   0.0000                                         
   Description                                                                  
     l       E           TYP  RCUT    TYP  RCUT                                 
     0    -23.9615319     23  1.100                                             
     0    -25.3221145     23  1.100                                             
     1     -9.0304911     23  1.100                                             
     1     -5.4802209     23  1.100                                             
     2     -9.5240782      7  1.100                                             
  local pseudopotential read in
  partial core-charges read in
  partial kinetic energy density read in
  atomic valenz-charges read in
  non local Contribution for L=           0  read in
    real space projection operators read in
  non local Contribution for L=           0  read in
    real space projection operators read in
  non local Contribution for L=           1  read in
    real space projection operators read in
  non local Contribution for L=           1  read in
    real space projection operators read in
    PAW grid and wavefunctions read in
 
   number of l-projection  operators is LMAX  =           4
   number of lm-projection operators is LMMAX =           8
 
 POTCAR:    PAW_PBE Ru_pv 28Jan2005               
   VRHFIN =Ru: 4p5s4d                                                           
   LEXCH  = PE                                                                  
   EATOM  =  1873.4746 eV,  137.6965 Ry                                         
                                                                                
   TITEL  = PAW_PBE Ru_pv 28Jan2005                                             
   LULTRA =        F    use ultrasoft PP ?                                      
   IUNSCR =        1    unscreen: 0-lin 1-nonlin 2-no                           
   RPACOR =    2.170    partial core radius                                     
   POMASS =  101.070; ZVAL   =   14.000    mass and valenz                      
   RCORE  =    2.500    outmost cutoff radius                                   
   RWIGS  =    2.650; RWIGS  =    1.402    wigner-seitz radius (au A)           
   ENMAX  =  240.049; ENMIN  =  180.037 eV                                      
   ICORE  =        3    local potential                                         
   LCOR   =        T    correct aug charges                                     
   LPAW   =        T    paw PP                                                  
   EAUG   =  430.792                                                            
   DEXC   =    0.000                                                            
   RMAX   =    2.546    core radius for proj-oper                               
   RAUG   =    1.300    factor for augmentation sphere                          
   RDEP   =    2.520    radius for radial grids                                 
   RDEPT  =    2.044    core radius for aug-charge                              
                                                                                
   Atomic configuration                                                         
   11 entries                                                                   
     n  l   j            E        occ.                                          
     1  0  0.50    -21933.2692   2.0000                                         
     2  0  0.50     -3153.4096   2.0000                                         
     2  1  1.50     -2823.9548   6.0000                                         
     3  0  0.50      -555.3322   2.0000                                         
     3  1  1.50      -447.1024   6.0000                                         
     3  2  2.50      -273.0570  10.0000                                         
     4  0  0.50       -76.3589   2.0000                                         
     4  1  1.50       -46.4050   6.0000                                         
     4  2  2.50        -5.2029   7.0000                                         
     5  0  0.50        -4.2392   1.0000                                         
     4  3  2.50        -1.3606   0.0000                                         
   Description                                                                  
     l       E           TYP  RCUT    TYP  RCUT                                 
     1    -46.4050190     23  2.100                                             
     1      4.0817478     23  2.100                                             
     2     -5.2028758     23  2.500                                             
     2     -6.5634584     23  2.500                                             
     0     -4.2392192     23  2.500                                             
     0      7.0918828     23  2.500                                             
     3     -5.4423304     23  2.500                                             
  local pseudopotential read in
  partial core-charges read in
  partial kinetic energy density read in
  atomic valenz-charges read in
  non local Contribution for L=           1  read in
    real space projection operators read in
  non local Contribution for L=           1  read in
    real space projection operators read in
  non local Contribution for L=           2  read in
    real space projection operators read in
  non local Contribution for L=           2  read in
    real space projection operators read in
  non local Contribution for L=           0  read in
    real space projection operators read in
  non local Contribution for L=           0  read in
    real space projection operators read in
    PAW grid and wavefunctions read in
 
   number of l-projection  operators is LMAX  =           6
   number of lm-projection operators is LMMAX =          18
 
 Optimization of the real space projectors (new method)

 maximal supplied QI-value         = 34.20
 optimisation between [QCUT,QGAM] = [ 13.34, 27.02] = [ 49.83,204.46] Ry 
 Optimized for a Real-space Cutoff    1.04 Angstroem

   l    n(q)    QCUT    max X(q) W(low)/X(q) W(high)/X(q)  e(spline) 
   0      8    13.340   134.812    0.72E-04    0.21E-03    0.27E-06
   0      8    13.340    80.524    0.70E-04    0.21E-03    0.27E-06
   1      8    13.340    79.026    0.21E-03    0.16E-03    0.33E-06
   1      8    13.340    45.188    0.20E-03    0.15E-03    0.33E-06
 Optimization of the real space projectors (new method)

 maximal supplied QI-value         = 34.20
 optimisation between [QCUT,QGAM] = [ 13.34, 27.02] = [ 49.83,204.46] Ry 
 Optimized for a Real-space Cutoff    1.04 Angstroem

   l    n(q)    QCUT    max X(q) W(low)/X(q) W(high)/X(q)  e(spline) 
   0      8    13.340   134.812    0.72E-04    0.21E-03    0.27E-06
   0      8    13.340    80.524    0.70E-04    0.21E-03    0.27E-06
   1      8    13.340    79.026    0.21E-03    0.16E-03    0.33E-06
   1      8    13.340    45.188    0.20E-03    0.15E-03    0.33E-06
 Optimization of the real space projectors (new method)

 maximal supplied QI-value         = 34.20
 optimisation between [QCUT,QGAM] = [ 13.34, 27.02] = [ 49.83,204.46] Ry 
 Optimized for a Real-space Cutoff    0.98 Angstroem

   l    n(q)    QCUT    max X(q) W(low)/X(q) W(high)/X(q)  e(spline) 
   0      8    13.340    19.460    0.18E-03    0.41E-04    0.19E-06
   0      8    13.340    12.209    0.17E-03    0.45E-04    0.18E-06
   1      7    13.340     4.655    0.16E-03    0.30E-03    0.14E-06
 Optimization of the real space projectors (new method)

 maximal supplied QI-value         = 34.20
 optimisation between [QCUT,QGAM] = [ 13.34, 27.02] = [ 49.83,204.46] Ry 
 Optimized for a Real-space Cutoff    1.04 Angstroem

   l    n(q)    QCUT    max X(q) W(low)/X(q) W(high)/X(q)  e(spline) 
   0      8    13.340   148.539    0.85E-04    0.19E-03    0.21E-06
   0      8    13.340   106.192    0.84E-04    0.19E-03    0.21E-06
   1      8    13.340    73.877    0.18E-03    0.11E-03    0.36E-06
   1      8    13.340    50.042    0.17E-03    0.11E-03    0.36E-06
 Optimization of the real space projectors (new method)

 maximal supplied QI-value         = 34.20
 optimisation between [QCUT,QGAM] = [ 13.34, 27.02] = [ 49.83,204.46] Ry 
 Optimized for a Real-space Cutoff    0.98 Angstroem

   l    n(q)    QCUT    max X(q) W(low)/X(q) W(high)/X(q)  e(spline) 
   0      8    13.340   280.207    0.16E-03    0.35E-03    0.14E-06
   0      8    13.340   228.978    0.16E-03    0.35E-03    0.14E-06
   1      7    13.340    86.127    0.23E-03    0.25E-04    0.30E-06
   1      7    13.340    65.368    0.22E-03    0.27E-04    0.30E-06
 Optimization of the real space projectors (new method)

 maximal supplied QI-value         = 15.12
 optimisation between [QCUT,QGAM] = [ 13.45, 27.06] = [ 50.69,205.06] Ry 
 Optimized for a Real-space Cutoff    1.40 Angstroem

   l    n(q)    QCUT    max X(q) W(low)/X(q) W(high)/X(q)  e(spline) 
   1     11    13.455     3.180    0.18E-04    0.25E-04    0.55E-07
   1     11    13.455     5.351    0.12E-03    0.15E-03    0.24E-06
   2     10    13.455    66.565    0.13E-03    0.46E-04    0.26E-06
   2     10    13.455    63.466    0.13E-03    0.47E-04    0.27E-06
   0     11    13.455    85.644    0.47E-04    0.16E-04    0.33E-06
   0     11    13.455    44.119    0.43E-04    0.15E-04    0.30E-06
  PAW_PBE C_h 06Feb2004                 :
 energy of atom  1       EATOM= -147.1560
 kinetic energy error for atom=    0.0286 (will be added to EATOM!!)
  PAW_PBE C_h 06Feb2004                 :
 energy of atom  2       EATOM= -147.1560
 kinetic energy error for atom=    0.0286 (will be added to EATOM!!)
  PAW_PBE H 15Jun2001                   :
 energy of atom  3       EATOM=  -12.4884
 kinetic energy error for atom=    0.0002 (will be added to EATOM!!)
  PAW_PBE N_h 06Feb2004                 :
 energy of atom  4       EATOM= -264.5486
 kinetic energy error for atom=    0.0847 (will be added to EATOM!!)
  PAW_PBE O_h 06Feb2004                 :
 energy of atom  5       EATOM= -432.3788
 kinetic energy error for atom=    0.1855 (will be added to EATOM!!)
  PAW_PBE Ru_pv 28Jan2005               :
 energy of atom  6       EATOM=-1873.4746
 kinetic energy error for atom=    0.0017 (will be added to EATOM!!)
 
 
 POSCAR: C C H N O Ru                            
  positions in direct lattice
  velocities in cartesian coordinates
 exchange correlation table for  LEXCH =        8
   RHO(1)=    0.500       N(1)  =     2000
   RHO(2)=  100.500       N(2)  =     4000
 


--------------------------------------------------------------------------------------------------------


 ion  position               nearest neighbor table
   1  0.408  0.622  0.691-  48 1.09  22 1.39  19 1.40
   2  0.438  0.566  0.328-  43 1.09   3 1.39   6 1.39
   3  0.456  0.524  0.381-  38 1.09  49 1.36   2 1.39
   4  0.474  0.615  0.450-  34 1.09  49 1.36   5 1.39
   5  0.456  0.660  0.399-  33 1.09   4 1.39   6 1.40
   6  0.438  0.635  0.337-  32 1.09   2 1.39   5 1.40
   7  0.523  0.330  0.675-  26 1.09   8 1.39  16 1.40
   8  0.497  0.372  0.626-  31 1.09  51 1.36   7 1.39
   9  0.602  0.419  0.606-  51 1.37  10 1.40  14 1.47
  10  0.631  0.378  0.654-  28 1.09  16 1.39   9 1.40
  11  0.740  0.529  0.535-  41 1.09  15 1.39  12 1.40
  12  0.701  0.566  0.490-  37 1.09  13 1.39  11 1.40
  13  0.633  0.554  0.487-  47 1.09  53 1.36  12 1.39
  14  0.640  0.469  0.567-  53 1.37  15 1.40   9 1.47
  15  0.708  0.480  0.573-  36 1.09  11 1.39  14 1.40
  16  0.591  0.332  0.689-  27 1.09  10 1.39   7 1.40
  17  0.362  0.489  0.564-  50 1.37  18 1.40  21 1.46
  18  0.293  0.477  0.568-  45 1.09  25 1.39  17 1.40
  19  0.476  0.626  0.677-  44 1.09  20 1.39   1 1.40
  20  0.503  0.586  0.627-  42 1.09  52 1.36  19 1.39
  21  0.398  0.538  0.604-  52 1.38  22 1.40  17 1.46
  22  0.369  0.578  0.654-  30 1.09   1 1.39  21 1.40
  23  0.373  0.406  0.482-  39 1.09  50 1.35  24 1.39
  24  0.305  0.392  0.484-  40 1.09  23 1.39  25 1.40
  25  0.264  0.428  0.528-  46 1.09  18 1.39  24 1.40
  26  0.490  0.295  0.701-   7 1.09
  27  0.613  0.300  0.727-  16 1.09
  28  0.684  0.381  0.665-  10 1.09
  29  0.542  0.362  0.461-  54 0.97
  30  0.316  0.573  0.664-  22 1.09
  31  0.444  0.371  0.614-   8 1.09
  32  0.424  0.668  0.296-   6 1.09
  33  0.456  0.713  0.410-   5 1.09
  34  0.488  0.634  0.499-   4 1.09
  35  0.569  0.418  0.415-  54 0.98
  36  0.738  0.450  0.608-  15 1.09
  37  0.723  0.605  0.459-  12 1.09
  38  0.456  0.470  0.375-   3 1.09
  39  0.406  0.379  0.449-  23 1.09
  40  0.284  0.353  0.452-  24 1.09
  41  0.793  0.537  0.539-  11 1.09
  42  0.556  0.588  0.614-  20 1.09
  43  0.424  0.543  0.280-   2 1.09
  44  0.509  0.660  0.704-  19 1.09
  45  0.263  0.506  0.603-  18 1.09
  46  0.211  0.418  0.531-  25 1.09
  47  0.601  0.582  0.453-  13 1.09
  48  0.385  0.653  0.729-   1 1.09
  49  0.474  0.548  0.441-   4 1.36   3 1.36  55 2.12
  50  0.402  0.453  0.521-  23 1.35  17 1.37  55 2.06
  51  0.535  0.416  0.592-   8 1.36   9 1.37  55 2.06
  52  0.465  0.543  0.590-  20 1.36  21 1.38  55 2.01
  53  0.601  0.507  0.524-  13 1.36  14 1.37  55 2.08
  54  0.531  0.406  0.442-  29 0.97  35 0.98  55 2.24
  55  0.501  0.481  0.519-  52 2.01  50 2.06  51 2.06  53 2.08  49 2.12  54 2.24
 
  LATTYP: Found a simple cubic cell.
 ALAT       =    20.0000000000
  
  Lattice vectors:
  
 A1 = (  20.0000000000,   0.0000000000,   0.0000000000)
 A2 = (   0.0000000000,  20.0000000000,   0.0000000000)
 A3 = (   0.0000000000,   0.0000000000,  20.0000000000)


Analysis of symmetry for initial positions (statically):
=====================================================================
 Subroutine PRICEL returns:
 Original cell was already a primitive cell.
 

 Routine SETGRP: Setting up the symmetry group for a 
 simple cubic supercell.


 Subroutine GETGRP returns: Found  1 space group operations
 (whereof  1 operations were pure point group operations)
 out of a pool of 48 trial point group operations.


The static configuration has the point symmetry C_1 .


Analysis of symmetry for dynamics (positions and initial velocities):
=====================================================================
 Subroutine PRICEL returns:
 Original cell was already a primitive cell.
 

 Routine SETGRP: Setting up the symmetry group for a 
 simple cubic supercell.


 Subroutine GETGRP returns: Found  1 space group operations
 (whereof  1 operations were pure point group operations)
 out of a pool of 48 trial point group operations.


The dynamic configuration has the point symmetry C_1 .


Analysis of constrained symmetry for selective dynamics:
=====================================================================
 Subroutine PRICEL returns:
 Original cell was already a primitive cell.
 

 Routine SETGRP: Setting up the symmetry group for a 
 simple cubic supercell.


 Subroutine GETGRP returns: Found  1 space group operations
 (whereof  1 operations were pure point group operations)
 out of a pool of 48 trial point group operations.


The constrained configuration has the point symmetry C_1 .


Analysis of magnetic symmetry:
=====================================================================
 Subroutine PRICEL returns:
 Original cell was already a primitive cell.
 

 Subroutine MAGSYM returns: Found  1 space group operations
 (whereof  1 operations were pure point group operations)
 out of a pool of  1 trial space group operations
 (whereof  1 operations were pure point group operations)
 and found also     1 'primitive' translations


The magnetic configuration has the point symmetry C_1 .
 
 
 KPOINTS: K-Points                                

Automatic generation of k-mesh.
Space group operators:
 irot       det(A)        alpha          n_x          n_y          n_z        tau_x        tau_y        tau_z
    1     1.000000     0.000000     1.000000     0.000000     0.000000     0.000000     0.000000     0.000000
 
 Subroutine IBZKPT returns following result:
 ===========================================
 
 Found      1 irreducible k-points:
 
 Following reciprocal coordinates:
            Coordinates               Weight
  0.000000  0.000000  0.000000      1.000000
 
 Following cartesian coordinates:
            Coordinates               Weight
  0.000000  0.000000  0.000000      1.000000
 


--------------------------------------------------------------------------------------------------------




 Dimension of arrays:
   k-points           NKPTS =      1   k-points in BZ     NKDIM =      1   number of bands    NBANDS=    128
   number of dos      NEDOS =    301   number of ions     NIONS =     55
   non local maximal  LDIM  =      6   non local SUM 2l+1 LMDIM =     18
   total plane-waves  NPLWV = ******
   max r-space proj   IRMAX =   8473   max aug-charges    IRDMAX= 268848
   dimension x,y,z NGX =   180 NGY =  180 NGZ =  180
   dimension x,y,z NGXF=   360 NGYF=  360 NGZF=  360
   support grid    NGXF=   720 NGYF=  720 NGZF=  720
   ions per type =               1  24  23   5   1   1
 NGX,Y,Z   is equivalent  to a cutoff of  14.96, 14.96, 14.96 a.u.
 NGXF,Y,Z  is equivalent  to a cutoff of  29.92, 29.92, 29.92 a.u.


 I would recommend the setting:
   dimension x,y,z NGX =   173 NGY =  173 NGZ =  173
 SYSTEM =  c2_oh2_ruthenium_mol                    
 POSCAR =  C C H N O Ru                            

 Startparameter for this run:
   NWRITE =      2    write-flag & timer
   PREC   = accura    normal or accurate (medium, high low for compatibility)
   ISTART =      0    job   : 0-new  1-cont  2-samecut
   ICHARG =      2    charge: 1-file 2-atom 10-const
   ISPIN  =      2    spin polarized calculation?
   LNONCOLLINEAR =      F non collinear calculations
   LSORBIT =      F    spin-orbit coupling
   INIWAV =      1    electr: 0-lowe 1-rand  2-diag
   LASPH  =      F    aspherical Exc in radial PAW
   METAGGA=      F    non-selfconsistent MetaGGA calc.

 Electronic Relaxation 1
   ENCUT  =  700.0 eV  51.45 Ry    7.17 a.u.  43.15 43.15 43.15*2*pi/ulx,y,z
   ENINI  =  700.0     initial cutoff
   ENAUG  =  946.8 eV  augmentation charge cutoff
   NELM   =     60;   NELMIN=  2; NELMDL= -5     # of ELM steps 
   EDIFF  = 0.1E-04   stopping-criterion for ELM
   LREAL  =      T    real-space projection
   NLSPLINE    = F    spline interpolate recip. space projectors
   LCOMPAT=      F    compatible to vasp.4.4
   GGA_COMPAT  = T    GGA compatible to vasp.4.4-vasp.4.6
   LMAXPAW     = -100 max onsite density
   LMAXMIX     =    2 max onsite mixed and CHGCAR
   VOSKOWN=      0    Vosko Wilk Nusair interpolation
   ROPT   =   -0.00025  -0.00025  -0.00025  -0.00025
   ROPT   =   -0.00025  -0.00025
 Ionic relaxation
   EDIFFG = -.1E-01   stopping-criterion for IOM
   NSW    =      0    number of steps for IOM
   NBLOCK =      1;   KBLOCK =      1    inner block; outer block 
   IBRION =     -1    ionic relax: 0-MD 1-quasi-New 2-CG
   NFREE  =      0    steps in history (QN), initial steepest desc. (CG)
   ISIF   =      2    stress and relaxation
   IWAVPR =     10    prediction:  0-non 1-charg 2-wave 3-comb
   ISYM   =      2    0-nonsym 1-usesym 2-fastsym
   LCORR  =      T    Harris-Foulkes like correction to forces

   POTIM  = 0.5000    time-step for ionic-motion
   TEIN   =    0.0    initial temperature
   TEBEG  =    0.0;   TEEND  =   0.0 temperature during run
   SMASS  =  -3.00    Nose mass-parameter (am)
   estimated Nose-frequenzy (Omega)   =  0.10E-29 period in steps =****** mass=  -0.914E-26a.u.
   SCALEE = 1.0000    scale energy and forces
   NPACO  =    256;   APACO  = 16.0  distance and # of slots for P.C.
   PSTRESS=    0.0 pullay stress

  Mass of Ions in am
   POMASS =  12.01 12.01  1.00 14.00 16.00101.07
  Ionic Valenz
   ZVAL   =   4.50  4.00  1.00  5.00  6.00 14.00
  Atomic Wigner-Seitz radii
   RWIGS  =  -1.00 -1.00 -1.00 -1.00 -1.00 -1.00
  virtual crystal weights 
   VCA    =   1.00  1.00  1.00  1.00  1.00  1.00
   NELECT =     166.0000    total number of electrons
   NUPDOWN=       0.0000    fix difference up-down

 DOS related values:
   EMIN   =  10.00;   EMAX   =-10.00  energy-range for DOS
   EFERMI =   0.00
   ISMEAR =     0;   SIGMA  =   0.01  broadening in eV -4-tet -1-fermi 0-gaus

 Electronic relaxation 2 (details)
   IALGO  =     38    algorithm
   LDIAG  =      T    sub-space diagonalisation (order eigenvalues)
   LSUBROT=      F    optimize rotation matrix (better conditioning)
   TURBO    =      0    0=normal 1=particle mesh
   IRESTART =      0    0=no restart 2=restart with 2 vectors
   NREBOOT  =      0    no. of reboots
   NMIN     =      0    reboot dimension
   EREF     =   0.00    reference energy to select bands
   IMIX   =      4    mixing-type and parameters
     AMIX     =   0.40;   BMIX     =  2.00
     AMIX_MAG =   1.60;   BMIX_MAG =  2.00
     AMIN     =   0.10
     WC   =   100.;   INIMIX=   1;  MIXPRE=   1;  MAXMIX= -45

 Intra band minimization:
   WEIMIN = 0.0000     energy-eigenvalue tresh-hold
   EBREAK =  0.20E-07  absolut break condition
   DEPER  =   0.30     relativ break condition  

   TIME   =   0.05     timestep for ELM

  volume/ion in A,a.u.               =     145.45       981.58
  Fermi-wavevector in a.u.,A,eV,Ry     =   0.449864  0.850119  2.753510  0.202377
  Thomas-Fermi vector in A             =   1.430192
 
 Write flags
   LWAVE  =      T    write WAVECAR
   LCHARG =      T    write CHGCAR
   LVTOT  =      F    write LOCPOT, total local potential
   LVHAR  =      F    write LOCPOT, Hartree potential only
   LELF   =      F    write electronic localiz. function (ELF)
   LORBIT =      0    0 simple, 1 ext, 2 COOP (PROOUT)


 Dipole corrections
   LMONO  =      F    monopole corrections only (constant potential shift)
   LDIPOL =      F    correct potential (dipole corrections)
   IDIPOL =      0    1-x, 2-y, 3-z, 4-all directions 
   EPSILON=  1.0000000 bulk dielectric constant

 Core level calculations are selected ICORELEVEL =  2
  CLNT =           1       CLN =     1
  CLL  =           0       CLZ = 0.500
 Exchange correlation treatment:
   GGA     =    --    GGA type
   LEXCH   =     8    internal setting for exchange type
   VOSKOWN=      0    Vosko Wilk Nusair interpolation
   LHFCALC =     F    Hartree Fock is set to
   LHFONE  =     F    Hartree Fock one center treatment
   AEXX    =    0.0000 exact exchange contribution

 Linear response parameters
   LEPSILON=     F    determine dielectric tensor
   LRPA    =     F    only Hartree local field effects (RPA)
   LNABLA  =     F    use nabla operator in PAW spheres
   LVEL    =     F    velocity operator in full k-point grid
   LINTERFAST=   F  fast interpolation
   KINTER  =     0    interpolate to denser k-point grid
   CSHIFT  =0.1000    complex shift for real part using Kramers Kronig
   OMEGAMAX=  -1.0    maximum frequency
   DEG_THRESHOLD= 0.2000000E-02 threshold for treating states as degnerate
   RTIME   =    0.100 relaxation time in fs

 Orbital magnetization related:
   ORBITALMAG=     F  switch on orbital magnetization
   LCHIMAG   =     F  perturbation theory with respect to B field
   DQ        =  0.001000  dq finite difference perturbation B field



--------------------------------------------------------------------------------------------------------


 Static calculation
 charge density and potential will be updated during run
 spin polarized calculation
 Variant of blocked Davidson
 Davidson routine will perform the subspace rotation
 perform sub-space diagonalisation
    after iterative eigenvector-optimisation
 modified Broyden-mixing scheme, WC =      100.0
 initial mixing is a Kerker type mixing with AMIX =  0.4000 and BMIX =      2.0000
 Hartree-type preconditioning will be used
 using additional bands           45
 real space projection scheme for non local part
 use partial core corrections
 calculate Harris-corrections to forces 
   (improved forces if not selfconsistent)
 use gradient corrections 
 use of overlap-Matrix (Vanderbilt PP)
 Gauss-broadening in eV      SIGMA  =   0.01


--------------------------------------------------------------------------------------------------------


  energy-cutoff  :      700.00
  volume of cell :     8000.00
      direct lattice vectors                 reciprocal lattice vectors
    20.000000000  0.000000000  0.000000000     0.050000000  0.000000000  0.000000000
     0.000000000 20.000000000  0.000000000     0.000000000  0.050000000  0.000000000
     0.000000000  0.000000000 20.000000000     0.000000000  0.000000000  0.050000000

  length of vectors
    20.000000000 20.000000000 20.000000000     0.050000000  0.050000000  0.050000000


 
 k-points in units of 2pi/SCALE and weight: K-Points                                
   0.00000000  0.00000000  0.00000000       1.000
 
 k-points in reciprocal lattice and weights: K-Points                                
   0.00000000  0.00000000  0.00000000       1.000
 
 position of ions in fractional coordinates (direct lattice) 
   0.40790931  0.62211625  0.69058213
   0.43793752  0.56561110  0.32757008
   0.45581208  0.52423376  0.38051465
   0.47372925  0.61530131  0.44986522
   0.45595175  0.65963312  0.39935201
   0.43785737  0.63472201  0.33675972
   0.52307882  0.32955005  0.67474498
   0.49710163  0.37190466  0.62618823
   0.60227374  0.41933300  0.60593616
   0.63096398  0.37761922  0.65422416
   0.73964927  0.52855915  0.53463181
   0.70082162  0.56612858  0.49044049
   0.63257913  0.55363620  0.48652424
   0.63952130  0.46927713  0.56732841
   0.70843899  0.47974495  0.57314689
   0.59134754  0.33224398  0.68903016
   0.36211554  0.48866484  0.56417415
   0.29334713  0.47671938  0.56830116
   0.47619960  0.62606623  0.67660612
   0.50295190  0.58590820  0.62668073
   0.39825425  0.53800137  0.60426081
   0.36904589  0.57756069  0.65398228
   0.37289802  0.40579857  0.48223443
   0.30486503  0.39173492  0.48443166
   0.26422003  0.42785518  0.52821594
   0.48989745  0.29510618  0.70074864
   0.61334240  0.29968355  0.72673159
   0.68424189  0.38076917  0.66478776
   0.54225374  0.36233861  0.46129841
   0.31579090  0.57306911  0.66420366
   0.44416348  0.37118871  0.61364770
   0.42392665  0.66833230  0.29622671
   0.45642762  0.71313270  0.40950260
   0.48809132  0.63358802  0.49907234
   0.56912778  0.41808713  0.41480476
   0.73767440  0.44963919  0.60776512
   0.72277620  0.60481012  0.45904817
   0.45570253  0.47012894  0.37468790
   0.40614333  0.37888556  0.44852541
   0.28443799  0.35306162  0.45202062
   0.79326502  0.53703787  0.53892527
   0.55589708  0.58769132  0.61440612
   0.42412006  0.54328620  0.27986105
   0.50894741  0.65984570  0.70400156
   0.26265982  0.50568523  0.60265428
   0.21072272  0.41813760  0.53105039
   0.60090654  0.58197914  0.45254259
   0.38544357  0.65296704  0.72941133
   0.47424490  0.54794204  0.44140236
   0.40180479  0.45306079  0.52108436
   0.53520702  0.41608490  0.59173240
   0.46544808  0.54254992  0.59041194
   0.60138410  0.50650621  0.52397638
   0.53073984  0.40562607  0.44215451
   0.50088568  0.48087016  0.51934246
 
 position of ions in cartesian coordinates  (Angst):
   8.15818611 12.44232505 13.81164268
   8.75875044 11.31222209  6.55140167
   9.11624161 10.48467523  7.61029296
   9.47458509 12.30602619  8.99730442
   9.11903505 13.19266234  7.98704025
   8.75714739 12.69444028  6.73519441
  10.46157638  6.59100110 13.49489953
   9.94203263  7.43809325 12.52376455
  12.04547477  8.38665999 12.11872314
  12.61927957  7.55238445 13.08448329
  14.79298537 10.57118301 10.69263621
  14.01643234 11.32257164  9.80880974
  12.65158254 11.07272405  9.73048485
  12.79042597  9.38554253 11.34656829
  14.16877978  9.59489901 11.46293786
  11.82695089  6.64487969 13.78060313
   7.24231077  9.77329687 11.28348299
   5.86694270  9.53438759 11.36602327
   9.52399198 12.52132464 13.53212240
  10.05903801 11.71816400 12.53361469
   7.96508499 10.76002740 12.08521614
   7.38091777 11.55121387 13.07964553
   7.45796037  8.11597149  9.64468853
   6.09730063  7.83469839  9.68863321
   5.28440067  8.55710369 10.56431882
   9.79794892  5.90212351 14.01497288
  12.26684793  5.99367109 14.53463185
  13.68483783  7.61538334 13.29575520
  10.84507475  7.24677213  9.22596819
   6.31581791 11.46138226 13.28407311
   8.88326966  7.42377422 12.27295397
   8.47853309 13.36664601  5.92453423
   9.12855243 14.26265408  8.19005201
   9.76182647 12.67176037  9.98144677
  11.38255564  8.36174255  8.29609511
  14.75348806  8.99278384 12.15530242
  14.45552391 12.09620238  9.18096343
   9.11405064  9.40257887  7.49375804
   8.12286663  7.57771114  8.97050829
   5.68875982  7.06123239  9.04041232
  15.86530045 10.74075733 10.77850539
  11.11794158 11.75382641 12.28812234
   8.48240128 10.86572407  5.59722093
  10.17894811 13.19691406 14.08003122
   5.25319634 10.11370460 12.05308551
   4.21445446  8.36275200 10.62100772
  12.01813087 11.63958272  9.05085175
   7.70887141 13.05934086 14.58822659
   9.48489793 10.95884088  8.82804729
   8.03609572  9.06121573 10.42168714
  10.70414049  8.32169803 11.83464804
   9.30896151 10.85099836 11.80823871
  12.02768196 10.13012430 10.47952760
  10.61479684  8.11252146  8.84309019
  10.01771355  9.61740316 10.38684921
 


--------------------------------------------------------------------------------------------------------


 k-point  1 :   0.0000 0.0000 0.0000  plane waves:  336427

 maximum and minimum number of plane-waves per node :    336427   336427

 maximum number of plane-waves:    336427
 maximum index in each direction: 
   IXMAX=   43   IYMAX=   43   IZMAX=   43
   IXMIN=  -43   IYMIN=  -43   IZMIN=  -43

 NGX is ok and might be reduce to 174
 NGY is ok and might be reduce to 174
 NGZ is ok and might be reduce to 174

 serial   3D FFT for wavefunctions
 parallel 3D FFT for charge:
    minimum data exchange during FFTs selected (reduces bandwidth)


 total amount of memory used by VASP on root node   877132. kBytes
========================================================================

   base      :      30000. kBytes
   nonlr-proj:      19361. kBytes
   fftplans  :     269516. kBytes
   grid      :     534988. kBytes
   one-center:       1710. kBytes
   wavefun   :      21557. kBytes
 
     INWAV:  cpu time    0.00: real time    0.00
 Broyden mixing: mesh for mixing (old mesh)
   NGX = 87   NGY = 87   NGZ = 87
  (NGX  =360   NGY  =360   NGZ  =360)
  gives a total of 658503 points

 initial charge density was supplied:
 charge density of overlapping atoms calculated
 number of electron     168.5000000 magnetization       0.0000000
 keeping initial charge density in first step


--------------------------------------------------------------------------------------------------------


 Maximum index for non-local projection operator         8166
 Maximum index for augmentation-charges         3214 (set IRDMAX)


--------------------------------------------------------------------------------------------------------


 First call to EWALD:  gamma=   0.089
 Maximum number of real-space cells 3x 3x 3
 Maximum number of reciprocal cells 3x 3x 3

 FEWALD executed in parallel
    FEWALD:  cpu time    0.00: real time    0.00


----------------------------------------- Iteration    1(   1)  ---------------------------------------


    POTLOK:  cpu time    4.76: real time    4.79
    SETDIJ:  cpu time    2.84: real time    2.85
     EDDAV:  cpu time   14.83: real time   15.73
       DOS:  cpu time    0.02: real time    0.02
    --------------------------------------------
      LOOP:  cpu time   22.46: real time   23.39

 eigenvalue-minimisations  :   768
 total energy-change (2. order) : 0.9084239E+03  (-0.5882031E+04)
 number of electron     168.5000000 magnetization       0.0000000
 augmentation part      168.5000000 magnetization       0.0000000

 Free energy of the ion-electron system (eV)
  ---------------------------------------------------
  alpha Z        PSCENC =        12.91687988
  Ewald energy   TEWEN  =     23268.90771218
  -Hartree energ DENC   =    -28871.21224426
  -exchange      EXHF   =         0.00000000
  -V(xc)+E(xc)   XCENC  =       400.93214927
  PAW double counting   =      5890.45591622    -5710.10246236
  entropy T*S    EENTRO =        -0.00000032
  eigenvalues    EBANDS =     -1676.87398413
  atomic energy  EATOM  =      7593.39991119
  ---------------------------------------------------
  free energy    TOTEN  =       908.42387767 eV

  energy without entropy =      908.42387799  energy(sigma->0) =      908.42387783


--------------------------------------------------------------------------------------------------------




----------------------------------------- Iteration    1(   2)  ---------------------------------------


     EDDAV:  cpu time   19.26: real time   20.29
       DOS:  cpu time    0.01: real time    0.01
    --------------------------------------------
      LOOP:  cpu time   19.27: real time   20.31

 eigenvalue-minimisations  :  1024
 total energy-change (2. order) :-0.9767854E+03  (-0.9702369E+03)
 number of electron     168.5000000 magnetization       0.0000000
 augmentation part      168.5000000 magnetization       0.0000000

 Free energy of the ion-electron system (eV)
  ---------------------------------------------------
  alpha Z        PSCENC =        12.91687988
  Ewald energy   TEWEN  =     23268.90771218
  -Hartree energ DENC   =    -28871.21224426
  -exchange      EXHF   =         0.00000000
  -V(xc)+E(xc)   XCENC  =       400.93214927
  PAW double counting   =      5890.45591622    -5710.10246236
  entropy T*S    EENTRO =        -0.00000000
  eigenvalues    EBANDS =     -2653.65938294
  atomic energy  EATOM  =      7593.39991119
  ---------------------------------------------------
  free energy    TOTEN  =       -68.36152082 eV

  energy without entropy =      -68.36152082  energy(sigma->0) =      -68.36152082


--------------------------------------------------------------------------------------------------------




----------------------------------------- Iteration    1(   3)  ---------------------------------------


     EDDAV:  cpu time   15.05: real time   15.94
       DOS:  cpu time    0.02: real time    0.02
    --------------------------------------------
      LOOP:  cpu time   15.06: real time   15.96

 eigenvalue-minimisations  :   768
 total energy-change (2. order) :-0.3238325E+03  (-0.3232532E+03)
 number of electron     168.5000000 magnetization       0.0000000
 augmentation part      168.5000000 magnetization       0.0000000

 Free energy of the ion-electron system (eV)
  ---------------------------------------------------
  alpha Z        PSCENC =        12.91687988
  Ewald energy   TEWEN  =     23268.90771218
  -Hartree energ DENC   =    -28871.21224426
  -exchange      EXHF   =         0.00000000
  -V(xc)+E(xc)   XCENC  =       400.93214927
  PAW double counting   =      5890.45591622    -5710.10246236
  entropy T*S    EENTRO =        -0.00000000
  eigenvalues    EBANDS =     -2977.49192113
  atomic energy  EATOM  =      7593.39991119
  ---------------------------------------------------
  free energy    TOTEN  =      -392.19405900 eV

  energy without entropy =     -392.19405900  energy(sigma->0) =     -392.19405900


--------------------------------------------------------------------------------------------------------




----------------------------------------- Iteration    1(   4)  ---------------------------------------


     EDDAV:  cpu time   12.86: real time   13.54
       DOS:  cpu time    0.00: real time    0.01
    --------------------------------------------
      LOOP:  cpu time   12.86: real time   13.54

 eigenvalue-minimisations  :   640
 total energy-change (2. order) :-0.2022921E+02  (-0.2019976E+02)
 number of electron     168.5000000 magnetization       0.0000000
 augmentation part      168.5000000 magnetization       0.0000000

 Free energy of the ion-electron system (eV)
  ---------------------------------------------------
  alpha Z        PSCENC =        12.91687988
  Ewald energy   TEWEN  =     23268.90771218
  -Hartree energ DENC   =    -28871.21224426
  -exchange      EXHF   =         0.00000000
  -V(xc)+E(xc)   XCENC  =       400.93214927
  PAW double counting   =      5890.45591622    -5710.10246236
  entropy T*S    EENTRO =        -0.00000000
  eigenvalues    EBANDS =     -2997.72113368
  atomic energy  EATOM  =      7593.39991119
  ---------------------------------------------------
  free energy    TOTEN  =      -412.42327156 eV

  energy without entropy =     -412.42327156  energy(sigma->0) =     -412.42327156


--------------------------------------------------------------------------------------------------------




----------------------------------------- Iteration    1(   5)  ---------------------------------------


     EDDAV:  cpu time   16.90: real time   17.90
       DOS:  cpu time    0.02: real time    0.02
    CHARGE:  cpu time    5.04: real time    5.07
    MIXING:  cpu time    0.21: real time    0.21
    --------------------------------------------
      LOOP:  cpu time   22.17: real time   23.20

 eigenvalue-minimisations  :   896
 total energy-change (2. order) :-0.3109804E+00  (-0.3108374E+00)
 number of electron     166.0000000 magnetization       0.0000000
 augmentation part        3.6301460 magnetization       0.0000281

 Broyden mixing:
  rms(total) = 0.57101E+01    rms(broyden)= 0.57094E+01
  rms(prec ) = 0.60754E+01
  weight for this iteration     100.00

 Free energy of the ion-electron system (eV)
  ---------------------------------------------------
  alpha Z        PSCENC =        12.91687988
  Ewald energy   TEWEN  =     23268.90771218
  -Hartree energ DENC   =    -28871.21224426
  -exchange      EXHF   =         0.00000000
  -V(xc)+E(xc)   XCENC  =       400.93214927
  PAW double counting   =      5890.45591622    -5710.10246236
  entropy T*S    EENTRO =        -0.00000000
  eigenvalues    EBANDS =     -2998.03211405
  atomic energy  EATOM  =      7593.39991119
  ---------------------------------------------------
  free energy    TOTEN  =      -412.73425192 eV

  energy without entropy =     -412.73425192  energy(sigma->0) =     -412.73425192


--------------------------------------------------------------------------------------------------------




----------------------------------------- Iteration    1(   6)  ---------------------------------------


    POTLOK:  cpu time    4.62: real time    4.65
    SETDIJ:  cpu time    2.82: real time    2.82
     EDDAV:  cpu time   10.85: real time   11.49
       DOS:  cpu time    0.01: real time    0.01
    CHARGE:  cpu time    5.17: real time    5.18
    MIXING:  cpu time    0.12: real time    0.12
    --------------------------------------------
      LOOP:  cpu time   23.59: real time   24.27

 eigenvalue-minimisations  :   512
 total energy-change (2. order) : 0.1975068E+02  (-0.3293212E+02)
 number of electron     166.0000000 magnetization       0.0000000
 augmentation part        6.4404881 magnetization       0.0000878

 Broyden mixing:
  rms(total) = 0.38230E+01    rms(broyden)= 0.38229E+01
  rms(prec ) = 0.39872E+01
  weight for this iteration     100.00

 eigenvalues of (default mixing * dielectric matrix)
  average eigenvalue GAMMA=   1.0819
  1.0819

 Free energy of the ion-electron system (eV)
  ---------------------------------------------------
  alpha Z        PSCENC =        12.91687988
  Ewald energy   TEWEN  =     23268.90771218
  -Hartree energ DENC   =    -28880.76250891
  -exchange      EXHF   =         0.00000000
  -V(xc)+E(xc)   XCENC  =       406.54304545
  PAW double counting   =     20876.39931253   -20708.66472825
  entropy T*S    EENTRO =        -0.00000000
  eigenvalues    EBANDS =     -2961.72319703
  atomic energy  EATOM  =      7593.39991119
  ---------------------------------------------------
  free energy    TOTEN  =      -392.98357295 eV

  energy without entropy =     -392.98357295  energy(sigma->0) =     -392.98357295


--------------------------------------------------------------------------------------------------------




----------------------------------------- Iteration    1(   7)  ---------------------------------------


    POTLOK:  cpu time    4.62: real time    4.64
    SETDIJ:  cpu time    2.78: real time    2.79
     EDDAV:  cpu time   15.05: real time   16.32
       DOS:  cpu time    0.05: real time    0.05
    CHARGE:  cpu time    5.28: real time    5.28
    MIXING:  cpu time    0.08: real time    0.08
    --------------------------------------------
      LOOP:  cpu time   27.86: real time   29.17

 eigenvalue-minimisations  :   768
 total energy-change (2. order) : 0.1021006E+02  (-0.2370754E+01)
 number of electron     166.0000000 magnetization       0.0000000
 augmentation part        5.5224672 magnetization       0.0000091

 Broyden mixing:
  rms(total) = 0.23426E+01    rms(broyden)= 0.23426E+01
  rms(prec ) = 0.24101E+01
  weight for this iteration     100.00

 eigenvalues of (default mixing * dielectric matrix)
  average eigenvalue GAMMA=   1.4710
  0.7601  2.1820

 Free energy of the ion-electron system (eV)
  ---------------------------------------------------
  alpha Z        PSCENC =        12.91687988
  Ewald energy   TEWEN  =     23268.90771218
  -Hartree energ DENC   =    -29011.43974403
  -exchange      EXHF   =         0.00000000
  -V(xc)+E(xc)   XCENC  =       412.03835554
  PAW double counting   =     36804.69619777   -36632.22878477
  entropy T*S    EENTRO =        -0.00000000
  eigenvalues    EBANDS =     -2831.06404365
  atomic energy  EATOM  =      7593.39991119
  ---------------------------------------------------
  free energy    TOTEN  =      -382.77351588 eV

  energy without entropy =     -382.77351588  energy(sigma->0) =     -382.77351588


--------------------------------------------------------------------------------------------------------




----------------------------------------- Iteration    1(   8)  ---------------------------------------


    POTLOK:  cpu time    4.61: real time    4.64
    SETDIJ:  cpu time    2.86: real time    2.87
     EDDAV:  cpu time   15.26: real time   16.55
       DOS:  cpu time    0.05: real time    0.05
    CHARGE:  cpu time    5.18: real time    5.19
    MIXING:  cpu time    0.22: real time    0.22
    --------------------------------------------
      LOOP:  cpu time   28.19: real time   29.52

 eigenvalue-minimisations  :   768
 total energy-change (2. order) : 0.3967819E+01  (-0.1689834E+01)
 number of electron     166.0000000 magnetization       0.0000000
 augmentation part        4.8137280 magnetization      -0.0000070

 Broyden mixing:
  rms(total) = 0.93460E+00    rms(broyden)= 0.93456E+00
  rms(prec ) = 0.10290E+01
  weight for this iteration     100.00

 eigenvalues of (default mixing * dielectric matrix)
  average eigenvalue GAMMA=   1.4635
  2.7029  0.8438  0.8438

 Free energy of the ion-electron system (eV)
  ---------------------------------------------------
  alpha Z        PSCENC =        12.91687988
  Ewald energy   TEWEN  =     23268.90771218
  -Hartree energ DENC   =    -29163.84537087
  -exchange      EXHF   =         0.00000000
  -V(xc)+E(xc)   XCENC  =       420.10408751
  PAW double counting   =     71093.39959753   -70918.05343554
  entropy T*S    EENTRO =        -0.00000000
  eigenvalues    EBANDS =     -2685.63507836
  atomic energy  EATOM  =      7593.39991119
  ---------------------------------------------------
  free energy    TOTEN  =      -378.80569648 eV

  energy without entropy =     -378.80569648  energy(sigma->0) =     -378.80569648


--------------------------------------------------------------------------------------------------------




----------------------------------------- Iteration    1(   9)  ---------------------------------------


    POTLOK:  cpu time    4.61: real time    4.63
    SETDIJ:  cpu time    2.81: real time    2.81
     EDDAV:  cpu time   15.05: real time   16.32
       DOS:  cpu time    0.05: real time    0.05
    CHARGE:  cpu time    5.28: real time    5.29
    MIXING:  cpu time    0.09: real time    0.09
    --------------------------------------------
      LOOP:  cpu time   27.89: real time   29.19

 eigenvalue-minimisations  :   768
 total energy-change (2. order) : 0.1126151E+01  (-0.7056430E+00)
 number of electron     166.0000000 magnetization       0.0000000
 augmentation part        5.2821776 magnetization      -0.0000025

 Broyden mixing:
  rms(total) = 0.35559E+00    rms(broyden)= 0.35555E+00
  rms(prec ) = 0.39499E+00
  weight for this iteration     100.00

 eigenvalues of (default mixing * dielectric matrix)
  average eigenvalue GAMMA=   1.3205
  2.5064  1.2266  0.7745  0.7745

 Free energy of the ion-electron system (eV)
  ---------------------------------------------------
  alpha Z        PSCENC =        12.91687988
  Ewald energy   TEWEN  =     23268.90771218
  -Hartree energ DENC   =    -29176.21782508
  -exchange      EXHF   =         0.00000000
  -V(xc)+E(xc)   XCENC  =       422.47376556
  PAW double counting   =     82825.82026924   -82652.60491570
  entropy T*S    EENTRO =        -0.00000000
  eigenvalues    EBANDS =     -2672.37534241
  atomic energy  EATOM  =      7593.39991119
  ---------------------------------------------------
  free energy    TOTEN  =      -377.67954513 eV

  energy without entropy =     -377.67954513  energy(sigma->0) =     -377.67954513


--------------------------------------------------------------------------------------------------------




----------------------------------------- Iteration    1(  10)  ---------------------------------------


    POTLOK:  cpu time    4.61: real time    4.63
    SETDIJ:  cpu time    2.76: real time    2.91
     EDDAV:  cpu time   15.20: real time   16.53
       DOS:  cpu time    0.05: real time    0.05
    CHARGE:  cpu time    5.05: real time    5.06
    MIXING:  cpu time    0.20: real time    0.20
    --------------------------------------------
      LOOP:  cpu time   27.87: real time   29.38

 eigenvalue-minimisations  :   768
 total energy-change (2. order) : 0.2944805E-01  (-0.2724370E-01)
 number of electron     166.0000000 magnetization       0.0000000
 augmentation part        5.3450940 magnetization      -0.0000018

 Broyden mixing:
  rms(total) = 0.25695E+00    rms(broyden)= 0.25695E+00
  rms(prec ) = 0.30303E+00
  weight for this iteration     100.00

 eigenvalues of (default mixing * dielectric matrix)
  average eigenvalue GAMMA=   1.3807
  2.4555  1.8501  0.8172  0.8172  0.9634

 Free energy of the ion-electron system (eV)
  ---------------------------------------------------
  alpha Z        PSCENC =        12.91687988
  Ewald energy   TEWEN  =     23268.90771218
  -Hartree energ DENC   =    -29165.18062507
  -exchange      EXHF   =         0.00000000
  -V(xc)+E(xc)   XCENC  =       422.43421559
  PAW double counting   =     81241.66426109   -81068.74920426
  entropy T*S    EENTRO =        -0.00000000
  eigenvalues    EBANDS =     -2683.04324768
  atomic energy  EATOM  =      7593.39991119
  ---------------------------------------------------
  free energy    TOTEN  =      -377.65009707 eV

  energy without entropy =     -377.65009707  energy(sigma->0) =     -377.65009707


--------------------------------------------------------------------------------------------------------




----------------------------------------- Iteration    1(  11)  ---------------------------------------


    POTLOK:  cpu time    4.63: real time    4.64
    SETDIJ:  cpu time    2.80: real time    2.80
     EDDAV:  cpu time   15.03: real time   16.28
       DOS:  cpu time    0.04: real time    0.04
    CHARGE:  cpu time    5.27: real time    5.29
    MIXING:  cpu time    0.08: real time    0.08
    --------------------------------------------
      LOOP:  cpu time   27.85: real time   29.14

 eigenvalue-minimisations  :   768
 total energy-change (2. order) : 0.1396759E+00  (-0.1743514E-01)
 number of electron     166.0000000 magnetization       0.0000000
 augmentation part        5.2902348 magnetization      -0.0000016

 Broyden mixing:
  rms(total) = 0.10967E+00    rms(broyden)= 0.10967E+00
  rms(prec ) = 0.15343E+00
  weight for this iteration     100.00

 eigenvalues of (default mixing * dielectric matrix)
  average eigenvalue GAMMA=   1.4805
  2.6147  2.6147  0.8349  0.8349  0.9918  0.9918

 Free energy of the ion-electron system (eV)
  ---------------------------------------------------
  alpha Z        PSCENC =        12.91687988
  Ewald energy   TEWEN  =     23268.90771218
  -Hartree energ DENC   =    -29164.29412243
  -exchange      EXHF   =         0.00000000
  -V(xc)+E(xc)   XCENC  =       423.14715550
  PAW double counting   =     81903.03209372   -81729.88742346
  entropy T*S    EENTRO =        -0.00000000
  eigenvalues    EBANDS =     -2684.73262778
  atomic energy  EATOM  =      7593.39991119
  ---------------------------------------------------
  free energy    TOTEN  =      -377.51042119 eV

  energy without entropy =     -377.51042119  energy(sigma->0) =     -377.51042119


--------------------------------------------------------------------------------------------------------




----------------------------------------- Iteration    1(  12)  ---------------------------------------


    POTLOK:  cpu time    4.62: real time    4.64
    SETDIJ:  cpu time    2.80: real time    2.81
     EDDAV:  cpu time   15.16: real time   16.57
       DOS:  cpu time    0.06: real time    0.06
    CHARGE:  cpu time    5.26: real time    5.27
    MIXING:  cpu time    0.15: real time    0.15
    --------------------------------------------
      LOOP:  cpu time   28.06: real time   29.50

 eigenvalue-minimisations  :   768
 total energy-change (2. order) : 0.7455880E-01  (-0.1103256E-01)
 number of electron     166.0000000 magnetization       0.0000000
 augmentation part        5.2450573 magnetization       0.0000010

 Broyden mixing:
  rms(total) = 0.68239E-01    rms(broyden)= 0.68234E-01
  rms(prec ) = 0.99480E-01
  weight for this iteration     100.00

 eigenvalues of (default mixing * dielectric matrix)
  average eigenvalue GAMMA=   1.4630
  2.7976  2.7976  0.8426  0.8426  1.0233  1.0233  0.9140

 Free energy of the ion-electron system (eV)
  ---------------------------------------------------
  alpha Z        PSCENC =        12.91687988
  Ewald energy   TEWEN  =     23268.90771218
  -Hartree energ DENC   =    -29159.77871772
  -exchange      EXHF   =         0.00000000
  -V(xc)+E(xc)   XCENC  =       423.77326901
  PAW double counting   =     81717.99318077   -81544.73146147
  entropy T*S    EENTRO =        -0.00000000
  eigenvalues    EBANDS =     -2689.91663621
  atomic energy  EATOM  =      7593.39991119
  ---------------------------------------------------
  free energy    TOTEN  =      -377.43586238 eV

  energy without entropy =     -377.43586238  energy(sigma->0) =     -377.43586238


--------------------------------------------------------------------------------------------------------




----------------------------------------- Iteration    1(  13)  ---------------------------------------


    POTLOK:  cpu time    4.63: real time    4.65
    SETDIJ:  cpu time    2.81: real time    2.81
     EDDAV:  cpu time   15.04: real time   16.30
       DOS:  cpu time    0.05: real time    0.05
    CHARGE:  cpu time    5.09: real time    5.09
    MIXING:  cpu time    0.15: real time    0.17
    --------------------------------------------
      LOOP:  cpu time   27.77: real time   29.06

 eigenvalue-minimisations  :   768
 total energy-change (2. order) : 0.2371053E-01  (-0.2576735E-02)
 number of electron     166.0000000 magnetization       0.0000000
 augmentation part        5.2564494 magnetization      -0.0000025

 Broyden mixing:
  rms(total) = 0.45453E-01    rms(broyden)= 0.45452E-01
  rms(prec ) = 0.67324E-01
  weight for this iteration     100.00

 eigenvalues of (default mixing * dielectric matrix)
  average eigenvalue GAMMA=   1.5479
  3.2975  2.9308  1.4562  1.3678  1.0058  0.8380  0.8380  0.6494

 Free energy of the ion-electron system (eV)
  ---------------------------------------------------
  alpha Z        PSCENC =        12.91687988
  Ewald energy   TEWEN  =     23268.90771218
  -Hartree energ DENC   =    -29151.52782500
  -exchange      EXHF   =         0.00000000
  -V(xc)+E(xc)   XCENC  =       424.08704732
  PAW double counting   =     81245.48890736   -81072.34760674
  entropy T*S    EENTRO =        -0.00000000
  eigenvalues    EBANDS =     -2698.33717805
  atomic energy  EATOM  =      7593.39991119
  ---------------------------------------------------
  free energy    TOTEN  =      -377.41215185 eV

  energy without entropy =     -377.41215185  energy(sigma->0) =     -377.41215185


--------------------------------------------------------------------------------------------------------




----------------------------------------- Iteration    1(  14)  ---------------------------------------


    POTLOK:  cpu time    4.61: real time    4.63
    SETDIJ:  cpu time    2.83: real time    2.84
     EDDAV:  cpu time   15.00: real time   16.58
       DOS:  cpu time    0.06: real time    0.06
    CHARGE:  cpu time    5.29: real time    5.29
    MIXING:  cpu time    0.12: real time    0.12
    --------------------------------------------
      LOOP:  cpu time   27.91: real time   29.52

 eigenvalue-minimisations  :   768
 total energy-change (2. order) : 0.6312437E-02  (-0.1120494E-02)
 number of electron     166.0000000 magnetization       0.0000000
 augmentation part        5.2591885 magnetization       0.0000029

 Broyden mixing:
  rms(total) = 0.28879E-01    rms(broyden)= 0.28877E-01
  rms(prec ) = 0.44444E-01
  weight for this iteration     100.00

 eigenvalues of (default mixing * dielectric matrix)
  average eigenvalue GAMMA=   1.6281
  4.3411  2.6251  1.8530  1.5208  1.0103  1.0103  0.8320  0.8320  0.6286

 Free energy of the ion-electron system (eV)
  ---------------------------------------------------
  alpha Z        PSCENC =        12.91687988
  Ewald energy   TEWEN  =     23268.90771218
  -Hartree energ DENC   =    -29143.62367728
  -exchange      EXHF   =         0.00000000
  -V(xc)+E(xc)   XCENC  =       424.29130657
  PAW double counting   =     81027.16559094   -80854.07536995
  entropy T*S    EENTRO =        -0.00000000
  eigenvalues    EBANDS =     -2706.38819296
  atomic energy  EATOM  =      7593.39991119
  ---------------------------------------------------
  free energy    TOTEN  =      -377.40583942 eV

  energy without entropy =     -377.40583942  energy(sigma->0) =     -377.40583942


--------------------------------------------------------------------------------------------------------




----------------------------------------- Iteration    1(  15)  ---------------------------------------


    POTLOK:  cpu time    4.61: real time    4.64
    SETDIJ:  cpu time    2.84: real time    2.84
     EDDAV:  cpu time   15.02: real time   16.38
       DOS:  cpu time    0.05: real time    0.05
    CHARGE:  cpu time    5.22: real time    5.22
    MIXING:  cpu time    0.09: real time    0.09
    --------------------------------------------
      LOOP:  cpu time   27.83: real time   29.22

 eigenvalue-minimisations  :   768
 total energy-change (2. order) :-0.3302948E-02  (-0.4419914E-03)
 number of electron     166.0000000 magnetization       0.0000000
 augmentation part        5.2548671 magnetization      -0.0000009

 Broyden mixing:
  rms(total) = 0.21529E-01    rms(broyden)= 0.21528E-01
  rms(prec ) = 0.30970E-01
  weight for this iteration     100.00

 eigenvalues of (default mixing * dielectric matrix)
  average eigenvalue GAMMA=   1.7681
  5.3850  2.5409  2.5409  1.4287  1.4287  0.8384  0.8384  1.0985  0.9550  0.6264

 Free energy of the ion-electron system (eV)
  ---------------------------------------------------
  alpha Z        PSCENC =        12.91687988
  Ewald energy   TEWEN  =     23268.90771218
  -Hartree energ DENC   =    -29135.36481450
  -exchange      EXHF   =         0.00000000
  -V(xc)+E(xc)   XCENC  =       424.40017638
  PAW double counting   =     81042.28468156   -80869.17903257
  entropy T*S    EENTRO =        -0.00000000
  eigenvalues    EBANDS =     -2714.77465649
  atomic energy  EATOM  =      7593.39991119
  ---------------------------------------------------
  free energy    TOTEN  =      -377.40914237 eV

  energy without entropy =     -377.40914237  energy(sigma->0) =     -377.40914237


--------------------------------------------------------------------------------------------------------




----------------------------------------- Iteration    1(  16)  ---------------------------------------


    POTLOK:  cpu time    4.63: real time    4.65
    SETDIJ:  cpu time    2.83: real time    2.83
     EDDAV:  cpu time   15.20: real time   16.44
       DOS:  cpu time    0.04: real time    0.04
    CHARGE:  cpu time    5.56: real time    5.56
    MIXING:  cpu time    0.12: real time    0.12
    --------------------------------------------
      LOOP:  cpu time   28.38: real time   29.65

 eigenvalue-minimisations  :   768
 total energy-change (2. order) :-0.9832860E-02  (-0.3245614E-03)
 number of electron     166.0000000 magnetization       0.0000000
 augmentation part        5.2593556 magnetization       0.0000011

 Broyden mixing:
  rms(total) = 0.10418E-01    rms(broyden)= 0.10418E-01
  rms(prec ) = 0.15594E-01
  weight for this iteration     100.00

 eigenvalues of (default mixing * dielectric matrix)
  average eigenvalue GAMMA=   1.8078
  6.1141  2.6985  2.6985  1.5444  1.5444  1.1534  0.8382  0.8382  0.9153  0.9153
  0.6252

 Free energy of the ion-electron system (eV)
  ---------------------------------------------------
  alpha Z        PSCENC =        12.91687988
  Ewald energy   TEWEN  =     23268.90771218
  -Hartree energ DENC   =    -29124.77973334
  -exchange      EXHF   =         0.00000000
  -V(xc)+E(xc)   XCENC  =       424.38418150
  PAW double counting   =     81131.90955013   -80958.79928803
  entropy T*S    EENTRO =        -0.00000000
  eigenvalues    EBANDS =     -2725.35818875
  atomic energy  EATOM  =      7593.39991119
  ---------------------------------------------------
  free energy    TOTEN  =      -377.41897523 eV

  energy without entropy =     -377.41897523  energy(sigma->0) =     -377.41897523


--------------------------------------------------------------------------------------------------------




----------------------------------------- Iteration    1(  17)  ---------------------------------------


    POTLOK:  cpu time    4.63: real time    4.66
    SETDIJ:  cpu time    2.83: real time    2.83
     EDDAV:  cpu time   15.03: real time   16.27
       DOS:  cpu time    0.05: real time    0.05
    CHARGE:  cpu time    5.23: real time    5.23
    MIXING:  cpu time    0.13: real time    0.13
    --------------------------------------------
      LOOP:  cpu time   27.90: real time   29.18

 eigenvalue-minimisations  :   768
 total energy-change (2. order) :-0.6545014E-02  (-0.1012999E-03)
 number of electron     166.0000000 magnetization       0.0000000
 augmentation part        5.2608837 magnetization      -0.0000020

 Broyden mixing:
  rms(total) = 0.79428E-02    rms(broyden)= 0.79426E-02
  rms(prec ) = 0.10753E-01
  weight for this iteration     100.00

 eigenvalues of (default mixing * dielectric matrix)
  average eigenvalue GAMMA=   1.8767
  6.6481  2.8888  2.8888  1.8887  1.8887  0.8378  0.8378  1.0869  1.0665  1.0665
  0.7961  0.6253

 Free energy of the ion-electron system (eV)
  ---------------------------------------------------
  alpha Z        PSCENC =        12.91687988
  Ewald energy   TEWEN  =     23268.90771218
  -Hartree energ DENC   =    -29119.21060918
  -exchange      EXHF   =         0.00000000
  -V(xc)+E(xc)   XCENC  =       424.33722881
  PAW double counting   =     81158.10209121   -80984.98518741
  entropy T*S    EENTRO =        -0.00000000
  eigenvalues    EBANDS =     -2730.89354692
  atomic energy  EATOM  =      7593.39991119
  ---------------------------------------------------
  free energy    TOTEN  =      -377.42552024 eV

  energy without entropy =     -377.42552024  energy(sigma->0) =     -377.42552024


--------------------------------------------------------------------------------------------------------




----------------------------------------- Iteration    1(  18)  ---------------------------------------


    POTLOK:  cpu time    4.64: real time    4.67
    SETDIJ:  cpu time    2.84: real time    2.84
     EDDAV:  cpu time   15.24: real time   16.49
       DOS:  cpu time    0.05: real time    0.05
    CHARGE:  cpu time    5.40: real time    5.40
    MIXING:  cpu time    0.11: real time    0.11
    --------------------------------------------
      LOOP:  cpu time   28.28: real time   29.56

 eigenvalue-minimisations  :   768
 total energy-change (2. order) :-0.5725597E-02  (-0.6360115E-04)
 number of electron     166.0000000 magnetization       0.0000000
 augmentation part        5.2590751 magnetization       0.0000023

 Broyden mixing:
  rms(total) = 0.43890E-02    rms(broyden)= 0.43888E-02
  rms(prec ) = 0.58912E-02
  weight for this iteration     100.00

 eigenvalues of (default mixing * dielectric matrix)
[...]
 12.557   0.000  21.150   0.000  -0.003   0.000  -0.004   0.000   0.002   0.000  -0.006   0.000  -0.007   0.000   0.003   0.000
 21.150   0.000  35.622   0.000  -0.005   0.000  -0.006   0.000   0.003   0.000  -0.009   0.000  -0.011   0.000   0.005   0.000
 -0.003   0.000  -0.005   0.000  -3.539   0.000  -0.001   0.000  -0.000   0.000  -6.360   0.000  -0.001   0.000  -0.000   0.000
 -0.004   0.000  -0.006   0.000  -0.001   0.000  -3.539   0.000   0.000   0.000  -0.001   0.000  -6.360   0.000   0.000   0.000
  0.002   0.000   0.003   0.000  -0.000   0.000   0.000   0.000  -3.539   0.000  -0.000   0.000   0.000   0.000  -6.361   0.000
 -0.006   0.000  -0.009   0.000  -6.360   0.000  -0.001   0.000  -0.000   0.000 -11.408   0.000  -0.002   0.000  -0.001   0.000
 -0.007   0.000  -0.011   0.000  -0.001   0.000  -6.360   0.000   0.000   0.000  -0.002   0.000 -11.408   0.000   0.000   0.000
  0.003   0.000   0.005   0.000  -0.000   0.000   0.000   0.000  -6.361   0.000  -0.001   0.000   0.000   0.000 -11.410   0.000
 pseudopotential strength for first ion, spin component:           2
 12.557   0.000  21.150   0.000  -0.003   0.000  -0.004   0.000   0.002   0.000  -0.006   0.000  -0.007   0.000   0.003   0.000
 21.150   0.000  35.622   0.000  -0.005   0.000  -0.006   0.000   0.003   0.000  -0.009   0.000  -0.011   0.000   0.005   0.000
 -0.003   0.000  -0.005   0.000  -3.539   0.000  -0.001   0.000  -0.000   0.000  -6.360   0.000  -0.001   0.000  -0.000   0.000
 -0.004   0.000  -0.006   0.000  -0.001   0.000  -3.539   0.000   0.000   0.000  -0.001   0.000  -6.360   0.000   0.000   0.000
  0.002   0.000   0.003   0.000  -0.000   0.000   0.000   0.000  -3.539   0.000  -0.000   0.000   0.000   0.000  -6.361   0.000
 -0.006   0.000  -0.009   0.000  -6.360   0.000  -0.001   0.000  -0.000   0.000 -11.408   0.000  -0.002   0.000  -0.001   0.000
 -0.007   0.000  -0.011   0.000  -0.001   0.000  -6.360   0.000   0.000   0.000  -0.002   0.000 -11.408   0.000   0.000   0.000
  0.003   0.000   0.005   0.000  -0.000   0.000   0.000   0.000  -6.361   0.000  -0.001   0.000   0.000   0.000 -11.410   0.000
 total augmentation occupancy for first ion, spin component:           1
  1.015  -0.072  -0.334  -0.403   0.207   0.118   0.146  -0.079
 -0.072   0.365   0.147   0.179  -0.095  -0.037  -0.048   0.030
 -0.334   0.147   1.772   0.997   0.431  -0.162  -0.274  -0.142
 -0.403   0.179   0.997   1.817  -0.154  -0.274  -0.165   0.029
  0.207  -0.095   0.431  -0.154   2.997  -0.142   0.029  -0.535
  0.118  -0.037  -0.162  -0.274  -0.142   0.098   0.017   0.028
  0.146  -0.048  -0.274  -0.165   0.029   0.017   0.090   0.009
 -0.079   0.030  -0.142   0.029  -0.535   0.028   0.009   0.152
 total augmentation occupancy for first ion, spin component:           2
  0.000  -0.000  -0.000   0.000  -0.000  -0.000   0.000   0.000
 -0.000  -0.000   0.000  -0.000   0.000   0.000  -0.000   0.000
 -0.000   0.000   0.000  -0.000  -0.000  -0.000  -0.000   0.000
  0.000  -0.000  -0.000   0.000  -0.000   0.000   0.000   0.000
 -0.000   0.000  -0.000  -0.000  -0.000   0.000   0.000   0.000
 -0.000   0.000  -0.000   0.000   0.000  -0.000   0.000   0.000
  0.000  -0.000  -0.000   0.000   0.000   0.000  -0.000  -0.000
  0.000   0.000   0.000   0.000   0.000   0.000  -0.000  -0.000


------------------------ aborting loop because EDIFF is reached ----------------------------------------


    CHARGE:  cpu time    5.26: real time    5.26
    FORLOC:  cpu time    0.62: real time    0.62
    FORNL :  cpu time   19.80: real time   19.83
    STRESS:  cpu time   62.04: real time   62.13
    FORCOR:  cpu time    4.22: real time    4.24
    FORHAR:  cpu time    0.99: real time    1.00
    MIXING:  cpu time    0.19: real time    0.19
    OFIELD:  cpu time    0.00: real time    0.00

  FORCE on cell =-STRESS in cart. coord.  units (eV):
  Direction    XX          YY          ZZ          XY          YZ          ZX
  --------------------------------------------------------------------------------------
  Alpha Z    12.91688    12.91688    12.91688
  Ewald   11135.23723  5595.15592  6538.50012   365.96932 -1499.17210   877.32752
  Hartree 12505.37979  7808.84252  8796.72660    86.00929 -1400.10200   706.72236
  E(xc)    -688.90085  -691.45298  -692.09824     1.43233    -0.03349     0.64562
  Local  -26013.29556-15808.33820-17759.04599  -430.61867  2899.93867 -1585.46297
  n-local   -28.44930   -28.62733   -32.05681     3.64933    -1.07564    -0.95473
  augment    83.58569    83.99572    82.75870     1.92236     0.22175     0.82590
  Kinetic  2978.83313  3012.88675  3037.23510   -28.22319    -1.85135     1.34398
  Fock        0.00000     0.00000     0.00000     0.00000     0.00000     0.00000
  -------------------------------------------------------------------------------------
  Total     -14.69298   -14.62073   -15.06364     0.14077    -2.07417     0.44769
  in kB      -2.94259    -2.92812    -3.01683     0.02819    -0.41540     0.08966
  external pressure =       -2.96 kB  Pullay stress =        0.00 kB


 VOLUME and BASIS-vectors are now :
 -----------------------------------------------------------------------------
  energy-cutoff  :      700.00
  volume of cell :     8000.00
      direct lattice vectors                 reciprocal lattice vectors
    20.000000000  0.000000000  0.000000000     0.050000000  0.000000000  0.000000000
     0.000000000 20.000000000  0.000000000     0.000000000  0.050000000  0.000000000
     0.000000000  0.000000000 20.000000000     0.000000000  0.000000000  0.050000000

  length of vectors
    20.000000000 20.000000000 20.000000000     0.050000000  0.050000000  0.050000000


 FORCES acting on ions
    electron-ion (+dipol)            ewald-force                    non-local-force                 convergence-correction
 -----------------------------------------------------------------------------------------------
   0.143E+03 -.244E+03 -.293E+03   -.144E+03 0.246E+03 0.295E+03   0.990E+00 -.201E+01 -.239E+01   -.439E-04 0.698E-04 0.638E-04
   0.877E+02 -.898E+01 0.333E+03   -.884E+02 0.921E+01 -.335E+03   0.633E+00 -.233E+00 0.185E+01   0.138E-05 -.192E-04 -.805E-04
   0.678E+02 0.805E+02 0.318E+03   -.699E+02 -.827E+02 -.325E+03   0.214E+01 0.216E+01 0.637E+01   0.252E-04 -.667E-04 0.435E-04
   0.342E+01 -.317E+03 0.303E+02   -.369E+01 0.324E+03 -.301E+02   0.273E+00 -.685E+01 -.212E+00   0.177E-04 -.655E-04 0.236E-04
   0.361E+02 -.325E+03 0.105E+03   -.364E+02 0.327E+03 -.106E+03   0.341E+00 -.176E+01 0.721E+00   0.187E-04 0.362E-04 -.398E-04
   0.803E+02 -.208E+03 0.263E+03   -.808E+02 0.209E+03 -.265E+03   0.530E+00 -.111E+01 0.146E+01   0.910E-06 0.600E-04 -.101E-03
   0.745E+02 0.268E+03 -.218E+03   -.750E+02 -.269E+03 0.220E+03   0.443E+00 0.152E+01 -.142E+01   0.271E-05 -.667E-04 0.225E-04
   0.151E+03 0.256E+03 -.164E+03   -.155E+03 -.261E+03 0.168E+03   0.396E+01 0.481E+01 -.382E+01   0.919E-05 0.463E-04 -.605E-04
   -.226E+03 0.123E+03 -.137E+03   0.232E+03 -.124E+03 0.139E+03   -.531E+01 0.117E+01 -.278E+01   -.385E-04 0.336E-04 -.757E-04
   -.258E+03 0.144E+03 -.181E+03   0.259E+03 -.145E+03 0.183E+03   -.127E+01 0.130E+01 -.168E+01   0.393E-04 -.142E-04 -.320E-04
   -.338E+03 -.695E+02 -.723E+00   0.340E+03 0.701E+02 0.630E+00   -.196E+01 -.522E+00 0.713E-01   0.775E-04 0.208E-04 -.160E-04
   -.258E+03 -.192E+03 0.137E+03   0.259E+03 0.193E+03 -.138E+03   -.155E+01 -.120E+01 0.766E+00   0.459E-04 0.457E-04 -.531E-04
   -.181E+03 -.214E+03 0.187E+03   0.185E+03 0.219E+03 -.191E+03   -.341E+01 -.506E+01 0.407E+01   -.593E-04 -.558E-04 0.367E-05
   -.265E+03 0.640E+02 -.919E+02   0.270E+03 -.659E+02 0.948E+02   -.491E+01 0.191E+01 -.287E+01   -.107E-03 -.193E-04 -.384E-04
   -.315E+03 0.614E+02 -.112E+03   0.317E+03 -.612E+02 0.112E+03   -.236E+01 -.151E+00 -.380E+00   -.803E-05 -.491E-04 0.154E-04
   -.122E+03 0.232E+03 -.238E+03   0.123E+03 -.234E+03 0.240E+03   -.617E+00 0.138E+01 -.153E+01   0.433E-04 -.825E-04 0.411E-04
   0.271E+03 -.287E+02 -.103E+03   -.277E+03 0.297E+02 0.105E+03   0.537E+01 -.103E+01 -.205E+01   0.440E-04 0.876E-05 -.883E-05
   0.323E+03 -.342E+02 -.116E+03   -.325E+03 0.337E+02 0.116E+03   0.239E+01 0.525E+00 -.780E-02   -.110E-04 0.749E-05 0.446E-04
   -.845E+02 -.256E+03 -.244E+03   0.891E+02 0.258E+03 0.244E+03   -.541E+01 -.156E+01 -.316E+00   0.936E-04 0.610E-04 0.227E-04
   -.161E+03 -.235E+03 -.195E+03   0.166E+03 0.240E+03 0.198E+03   -.499E+01 -.406E+01 -.306E+01   0.333E-04 -.633E-04 -.549E-04
   0.233E+03 -.936E+02 -.156E+03   -.238E+03 0.934E+02 0.157E+03   0.542E+01 0.229E+00 -.139E+01   0.296E-04 -.425E-04 -.540E-04
   0.271E+03 -.117E+03 -.195E+03   -.274E+03 0.116E+03 0.194E+03   0.412E+01 0.226E+01 0.109E+01   -.106E-03 -.477E-04 -.385E-04
   0.147E+03 0.265E+03 0.193E+03   -.151E+03 -.270E+03 -.197E+03   0.321E+01 0.505E+01 0.425E+01   0.528E-04 -.138E-04 -.407E-04
   0.241E+03 0.224E+03 0.143E+03   -.243E+03 -.225E+03 -.144E+03   0.153E+01 0.129E+01 0.915E+00   -.442E-04 -.786E-04 -.609E-04
   0.337E+03 0.959E+02 0.344E+01   -.339E+03 -.966E+02 -.372E+01   0.209E+01 0.701E+00 0.271E+00   -.780E-04 -.552E-04 0.166E-04
   0.452E+02 0.806E+02 -.635E+02   -.488E+02 -.844E+02 0.664E+02   0.363E+01 0.381E+01 -.289E+01   -.979E-06 -.281E-04 0.156E-04
   -.418E+02 0.695E+02 -.756E+02   0.442E+02 -.731E+02 0.798E+02   -.243E+01 0.361E+01 -.418E+01   0.133E-04 -.310E-04 0.220E-04
   -.993E+02 0.279E+02 -.485E+02   0.105E+03 -.276E+02 0.497E+02   -.582E+01 -.256E+00 -.124E+01   0.146E-04 -.133E-04 0.265E-05
   -.407E+02 0.149E+03 0.159E+02   0.425E+02 -.157E+03 -.126E+02   -.179E+01 0.757E+01 -.335E+01   -.124E-04 0.407E-04 0.885E-06
   0.103E+03 -.217E+02 -.513E+02   -.108E+03 0.213E+02 0.525E+02   0.593E+01 0.487E+00 -.116E+01   -.112E-04 0.603E-06 0.262E-05
   0.799E+02 0.680E+02 -.316E+02   -.858E+02 -.682E+02 0.302E+02   0.587E+01 0.144E+00 0.133E+01   0.172E-05 0.655E-05 -.110E-04
   0.266E+02 -.663E+02 0.814E+02   -.282E+02 0.700E+02 -.859E+02   0.154E+01 -.371E+01 0.448E+01   -.445E-05 0.253E-04 -.389E-04
   0.588E+01 -.110E+03 0.899E+01   -.584E+01 0.116E+03 -.792E+01   -.362E-01 -.588E+01 -.107E+01   0.215E-05 0.283E-04 -.152E-04
   -.143E+02 -.101E+03 -.341E+02   0.159E+02 0.103E+03 0.394E+02   -.155E+01 -.209E+01 -.535E+01   0.514E-06 -.173E-04 0.173E-05
   -.101E+03 0.259E+02 0.116E+03   0.108E+03 -.236E+02 -.121E+03   -.652E+01 -.228E+01 0.485E+01   -.273E-04 0.644E-05 0.300E-04
   -.915E+02 0.385E+02 -.535E+02   0.948E+02 -.418E+02 0.572E+02   -.330E+01 0.324E+01 -.376E+01   0.136E-04 -.120E-04 0.525E-05
   -.661E+02 -.713E+02 0.547E+02   0.685E+02 0.756E+02 -.582E+02   -.245E+01 -.426E+01 0.345E+01   0.211E-04 0.146E-04 -.141E-04
   0.174E+02 0.711E+02 0.885E+02   -.175E+02 -.770E+02 -.892E+02   0.467E-01 0.597E+01 0.729E+00   0.517E-05 -.117E-04 0.932E-05
   0.415E+01 0.905E+02 0.774E+02   -.546E+00 -.935E+02 -.812E+02   -.360E+01 0.301E+01 0.376E+01   0.615E-05 -.642E-06 -.621E-05
   0.603E+02 0.771E+02 0.571E+02   -.626E+02 -.814E+02 -.607E+02   0.229E+01 0.427E+01 0.357E+01   -.181E-04 -.219E-04 -.156E-04
   -.105E+03 -.196E+02 -.448E+01   0.111E+03 0.206E+02 0.495E+01   -.593E+01 -.948E+00 -.465E+00   0.402E-04 0.107E-04 -.388E-05
   -.841E+02 -.638E+02 -.378E+02   0.901E+02 0.641E+02 0.366E+02   -.594E+01 -.214E+00 0.135E+01   -.649E-05 -.178E-04 -.988E-05
   0.286E+02 0.212E+02 0.104E+03   -.301E+02 -.236E+02 -.109E+03   0.152E+01 0.241E+01 0.526E+01   -.463E-05 -.361E-05 -.361E-04
   -.468E+02 -.788E+02 -.700E+02   0.503E+02 0.826E+02 0.731E+02   -.371E+01 -.376E+01 -.304E+01   0.602E-06 0.129E-04 0.908E-05
   0.948E+02 -.329E+02 -.541E+02   -.983E+02 0.360E+02 0.578E+02   0.347E+01 -.309E+01 -.369E+01   -.113E-04 -.227E-05 0.100E-04
   0.105E+03 0.253E+02 -.231E+01   -.111E+03 -.264E+02 0.261E+01   0.592E+01 0.109E+01 -.300E+00   -.336E-04 -.201E-04 0.318E-05
   -.229E+02 -.758E+02 0.740E+02   0.195E+02 0.790E+02 -.778E+02   0.343E+01 -.318E+01 0.379E+01   -.279E-05 -.800E-05 -.368E-05
   0.461E+02 -.697E+02 -.854E+02   -.482E+02 0.727E+02 0.891E+02   0.259E+01 -.358E+01 -.450E+01   -.192E-04 0.315E-04 0.355E-04
   0.305E+02 -.138E+03 0.223E+03   -.256E+02 0.126E+03 -.208E+03   -.490E+01 0.121E+02 -.147E+02   0.486E-04 -.136E-03 0.114E-03
   0.232E+03 0.164E+03 0.625E+02   -.212E+03 -.161E+03 -.644E+02   -.201E+02 -.300E+01 0.187E+01   0.123E-03 0.451E-04 -.426E-05
   -.412E+02 0.234E+03 -.159E+03   0.329E+02 -.223E+03 0.145E+03   0.843E+01 -.114E+02 0.132E+02   -.160E-05 0.128E-03 -.144E-03
   0.377E+02 -.195E+03 -.196E+03   -.292E+02 0.184E+03 0.182E+03   -.821E+01 0.103E+02 0.138E+02   0.724E-04 -.136E-03 -.113E-03
   -.253E+03 -.949E+02 0.682E+02   0.233E+03 0.925E+02 -.700E+02   0.202E+02 0.246E+01 0.182E+01   -.164E-03 -.112E-03 0.443E-05
   -.123E+03 0.404E+03 0.422E+03   0.834E+02 -.387E+03 -.425E+03   0.395E+02 -.169E+02 0.282E+01   -.372E-04 0.142E-03 0.136E-03
   -.758E+02 0.133E+03 0.231E+03   0.744E+02 -.130E+03 -.227E+03   0.110E+01 -.274E+01 -.361E+01   0.175E-03 -.113E-03 -.328E-04
 -----------------------------------------------------------------------------------------------
   -.308E+02 0.802E+01 -.106E+02   -.270E-12 0.284E-13 -.853E-13   0.308E+02 -.802E+01 0.106E+02   0.223E-03 -.543E-03 -.503E-03
 
 
 POSITION                                       TOTAL-FORCE (eV/Angst)
 -----------------------------------------------------------------------------------
      8.15819     12.44233     13.81164         0.000833     -0.155191     -0.163842
      8.75875     11.31222      6.55140        -0.005995      0.000650     -0.005409
      9.11624     10.48468      7.61029         0.005252     -0.028847      0.007016
      9.47459     12.30603      8.99730        -0.001820     -0.008963     -0.007273
      9.11904     13.19266      7.98704         0.004926      0.011957      0.036978
      8.75715     12.69444      6.73519         0.002745     -0.015861     -0.002246
     10.46158      6.59100     13.49490        -0.003983     -0.007451      0.018411
      9.94203      7.43809     12.52376        -0.008227      0.016830     -0.034763
     12.04547      8.38666     12.11872        -0.020463      0.002625     -0.009854
     12.61928      7.55238     13.08448         0.009222      0.016158     -0.003887
     14.79299     10.57118     10.69264        -0.016214      0.017051     -0.021121
     14.01643     11.32257      9.80881         0.031389     -0.001991      0.011714
     12.65158     11.07272      9.73048        -0.050358     -0.000870     -0.005260
     12.79043      9.38554     11.34657        -0.002888      0.013178     -0.021126
     14.16878      9.59490     11.46294        -0.010213     -0.011817      0.012403
     11.82695      6.64488     13.78060        -0.024033      0.003928     -0.012829
      7.24231      9.77330     11.28348        -0.097484     -0.019002      0.004570
      5.86694      9.53439     11.36602         0.016788      0.036290      0.034696
      9.52399     12.52132     13.53212        -0.806537     -0.117792      0.102429
     10.05904     11.71816     12.53361        -0.064273      0.101112      0.159547
      7.96508     10.76003     12.08522        -0.142703     -0.030935     -0.006175
      7.38092     11.55121     13.07965         0.599451      0.616832      0.498568
      7.45796      8.11597      9.64469         0.076498      0.038762      0.021958
      6.09730      7.83470      9.68863        -0.040438      0.021264      0.032193
      5.28440      8.55710     10.56432        -0.025337     -0.014624     -0.007291
      9.79795      5.90212     14.01497        -0.001806     -0.005771      0.001013
     12.26685      5.99367     14.53463         0.002531     -0.006908      0.004106
     13.68484      7.61538     13.29576        -0.001084     -0.001638      0.000511
     10.84507      7.24677      9.22597         0.008535     -0.036630     -0.007948
      6.31582     11.46138     13.28407         0.049903      0.124770      0.112248
      8.88327      7.42377     12.27295        -0.004181     -0.021865     -0.000724
      8.47853     13.36665      5.92453        -0.001144      0.006750     -0.000199
      9.12855     14.26265      8.19005         0.004422      0.002675     -0.002338
      9.76183     12.67176      9.98145         0.018123      0.026214     -0.019733
     11.38256      8.36174      8.29610         0.020826     -0.000153     -0.023604
     14.75349      8.99278     12.15530         0.006815     -0.000328     -0.000950
     14.45552     12.09620      9.18096         0.002727      0.001173     -0.006525
      9.11405      9.40258      7.49376        -0.004287     -0.001385     -0.012673
      8.12287      7.57771      8.97051         0.000393      0.000526      0.000624
      5.68876      7.06123      9.04041        -0.006380     -0.006945     -0.002017
     15.86530     10.74076     10.77851         0.002379      0.001262     -0.000048
     11.11794     11.75383     12.28812        -0.014498      0.056842      0.063545
      8.48240     10.86572      5.59722        -0.004023     -0.001107      0.004170
     10.17895     13.19691     14.08003        -0.160996      0.041872      0.080296
      5.25320     10.11370     12.05309        -0.045939     -0.014568     -0.005833
      4.21445      8.36275     10.62101        -0.003978      0.001165      0.000681
     12.01813     11.63958      9.05085         0.007935      0.000648     -0.009550
      7.70887     13.05934     14.58823         0.484726     -0.659769     -0.833436
      9.48490     10.95884      8.82805        -0.008401      0.007554     -0.115721
      8.03610      9.06122     10.42169         0.008191      0.025476      0.003045
     10.70414      8.32170     11.83465         0.106503     -0.169006      0.112027
      9.30896     10.85100     11.80824         0.280242     -0.321976     -0.381491
     12.02768     10.13012     10.47953         0.138143      0.052276      0.004294
     10.61480      8.11252      8.84309        -0.039418      0.095027      0.117593
     10.01771      9.61740     10.38685        -0.272394      0.320522      0.279230
 -----------------------------------------------------------------------------------
    total drift:                                0.006471     -0.003355      0.003066


--------------------------------------------------------------------------------------------------------



  FREE ENERGIE OF THE ION-ELECTRON SYSTEM (eV)
  ---------------------------------------------------
  free  energy   TOTEN  =      -377.43941948 eV

  energy  without entropy=     -377.43941948  energy(sigma->0) =     -377.43941948
 


--------------------------------------------------------------------------------------------------------


    POTLOK:  cpu time    7.67: real time    7.70


--------------------------------------------------------------------------------------------------------


 writing wavefunctions
     LOOP+:  cpu time  984.37: real time 1022.00
    4ORBIT:  cpu time    0.00: real time    0.00

 total amount of memory used by VASP on root node   877132. kBytes
========================================================================

   base      :      30000. kBytes
   nonlr-proj:      19361. kBytes
   fftplans  :     269516. kBytes
   grid      :     534988. kBytes
   one-center:       1710. kBytes
   wavefun   :      21557. kBytes
 
  
  
 General timing and accounting informations for this job:
 ========================================================
  
                  Total CPU time used (sec):     1241.446
                            User time (sec):     1093.353
                          System time (sec):      148.093
                         Elapsed time (sec):     1283.045
  
                   Maximum memory used (kb):     1489972.
                   Average memory used (kb):           0.
  
                          Minor page faults:      6647516
                          Major page faults:            1
                 Voluntary context switches:       264778
