  55  55   0   0
  0.1454545E+03  0.2000000E-08  0.2000000E-08  0.2000000E-08  0.5000000E-15
  1.000000000000000E-004
  CAR 
 c2_oh2_ruthenium_mol                    
      3.14943483    -51.69049115  301     -7.04165142      1.00000000
    -51.690  0.0000E+00  0.0000E+00  0.0000E+00  0.0000E+00
    -51.508  0.0000E+00  0.0000E+00  0.0000E+00  0.0000E+00
    -51.325  0.0000E+00  0.0000E+00  0.0000E+00  0.0000E+00
    -51.142  0.0000E+00  0.0000E+00  0.0000E+00  0.0000E+00
    -50.959  0.0000E+00  0.0000E+00  0.0000E+00  0.0000E+00
    -50.776  0.0000E+00  0.0000E+00  0.0000E+00  0.0000E+00
    -50.594  0.0000E+00  0.0000E+00  0.0000E+00  0.0000E+00
    -50.411  0.0000E+00  0.0000E+00  0.0000E+00  0.0000E+00
    -50.228  0.0000E+00  0.0000E+00  0.0000E+00  0.0000E+00
    -50.045  0.0000E+00  0.0000E+00  0.0000E+00  0.0000E+00
    -49.862  0.0000E+00  0.0000E+00  0.0000E+00  0.0000E+00
    -49.680  0.0000E+00  0.0000E+00  0.0000E+00  0.0000E+00
    -49.497  0.0000E+00  0.0000E+00  0.0000E+00  0.0000E+00
    -49.314  0.0000E+00  0.0000E+00  0.0000E+00  0.0000E+00
    -49.131  0.1094E+02  0.1094E+02  0.2000E+01  0.2000E+01
    -48.948  0.0000E+00  0.0000E+00  0.4000E+01  0.4000E+01
    -48.766  0.1094E+02  0.1094E+02  0.6000E+01  0.6000E+01
    -48.583  0.0000E+00  0.0000E+00  0.6000E+01  0.6000E+01
    -48.400  0.0000E+00  0.0000E+00  0.6000E+01  0.6000E+01
    -48.217  0.0000E+00  0.0000E+00  0.6000E+01  0.6000E+01
    -48.034  0.0000E+00  0.0000E+00  0.6000E+01  0.6000E+01
    -47.852  0.0000E+00  0.0000E+00  0.6000E+01  0.6000E+01
    -47.669  0.0000E+00  0.0000E+00  0.6000E+01  0.6000E+01
    -47.486  0.0000E+00  0.0000E+00  0.6000E+01  0.6000E+01
    -47.303  0.0000E+00  0.0000E+00  0.6000E+01  0.6000E+01
    -47.120  0.0000E+00  0.0000E+00  0.6000E+01  0.6000E+01
    -46.938  0.0000E+00  0.0000E+00  0.6000E+01  0.6000E+01
    -46.755  0.0000E+00  0.0000E+00  0.6000E+01  0.6000E+01
    -46.572  0.0000E+00  0.0000E+00  0.6000E+01  0.6000E+01
    -46.389  0.0000E+00  0.0000E+00  0.6000E+01  0.6000E+01
    -46.206  0.0000E+00  0.0000E+00  0.6000E+01  0.6000E+01
    -46.024  0.0000E+00  0.0000E+00  0.6000E+01  0.6000E+01
    -45.841  0.0000E+00  0.0000E+00  0.6000E+01  0.6000E+01
    -45.658  0.0000E+00  0.0000E+00  0.6000E+01  0.6000E+01
    -45.475  0.0000E+00  0.0000E+00  0.6000E+01  0.6000E+01
    -45.292  0.0000E+00  0.0000E+00  0.6000E+01  0.6000E+01
    -45.110  0.0000E+00  0.0000E+00  0.6000E+01  0.6000E+01
    -44.927  0.0000E+00  0.0000E+00  0.6000E+01  0.6000E+01
    -44.744  0.0000E+00  0.0000E+00  0.6000E+01  0.6000E+01
    -44.561  0.0000E+00  0.0000E+00  0.6000E+01  0.6000E+01
    -44.379  0.0000E+00  0.0000E+00  0.6000E+01  0.6000E+01
    -44.196  0.0000E+00  0.0000E+00  0.6000E+01  0.6000E+01
    -44.013  0.0000E+00  0.0000E+00  0.6000E+01  0.6000E+01
    -43.830  0.0000E+00  0.0000E+00  0.6000E+01  0.6000E+01
    -43.647  0.0000E+00  0.0000E+00  0.6000E+01  0.6000E+01
    -43.465  0.0000E+00  0.0000E+00  0.6000E+01  0.6000E+01
    -43.282  0.0000E+00  0.0000E+00  0.6000E+01  0.6000E+01
    -43.099  0.0000E+00  0.0000E+00  0.6000E+01  0.6000E+01
    -42.916  0.0000E+00  0.0000E+00  0.6000E+01  0.6000E+01
    -42.733  0.0000E+00  0.0000E+00  0.6000E+01  0.6000E+01
    -42.551  0.0000E+00  0.0000E+00  0.6000E+01  0.6000E+01
    -42.368  0.0000E+00  0.0000E+00  0.6000E+01  0.6000E+01
    -42.185  0.0000E+00  0.0000E+00  0.6000E+01  0.6000E+01
    -42.002  0.0000E+00  0.0000E+00  0.6000E+01  0.6000E+01
    -41.819  0.0000E+00  0.0000E+00  0.6000E+01  0.6000E+01
    -41.637  0.0000E+00  0.0000E+00  0.6000E+01  0.6000E+01
    -41.454  0.0000E+00  0.0000E+00  0.6000E+01  0.6000E+01
    -41.271  0.0000E+00  0.0000E+00  0.6000E+01  0.6000E+01
    -41.088  0.0000E+00  0.0000E+00  0.6000E+01  0.6000E+01
    -40.905  0.0000E+00  0.0000E+00  0.6000E+01  0.6000E+01
    -40.723  0.0000E+00  0.0000E+00  0.6000E+01  0.6000E+01
    -40.540  0.0000E+00  0.0000E+00  0.6000E+01  0.6000E+01
    -40.357  0.0000E+00  0.0000E+00  0.6000E+01  0.6000E+01
    -40.174  0.0000E+00  0.0000E+00  0.6000E+01  0.6000E+01
    -39.991  0.0000E+00  0.0000E+00  0.6000E+01  0.6000E+01
    -39.809  0.0000E+00  0.0000E+00  0.6000E+01  0.6000E+01
    -39.626  0.0000E+00  0.0000E+00  0.6000E+01  0.6000E+01
    -39.443  0.0000E+00  0.0000E+00  0.6000E+01  0.6000E+01
    -39.260  0.0000E+00  0.0000E+00  0.6000E+01  0.6000E+01
    -39.077  0.0000E+00  0.0000E+00  0.6000E+01  0.6000E+01
    -38.895  0.0000E+00  0.0000E+00  0.6000E+01  0.6000E+01
    -38.712  0.0000E+00  0.0000E+00  0.6000E+01  0.6000E+01
    -38.529  0.0000E+00  0.0000E+00  0.6000E+01  0.6000E+01
    -38.346  0.0000E+00  0.0000E+00  0.6000E+01  0.6000E+01
    -38.163  0.0000E+00  0.0000E+00  0.6000E+01  0.6000E+01
    -37.981  0.0000E+00  0.0000E+00  0.6000E+01  0.6000E+01
    -37.798  0.0000E+00  0.0000E+00  0.6000E+01  0.6000E+01
    -37.615  0.0000E+00  0.0000E+00  0.6000E+01  0.6000E+01
    -37.432  0.0000E+00  0.0000E+00  0.6000E+01  0.6000E+01
    -37.249  0.0000E+00  0.0000E+00  0.6000E+01  0.6000E+01
    -37.067  0.0000E+00  0.0000E+00  0.6000E+01  0.6000E+01
    -36.884  0.0000E+00  0.0000E+00  0.6000E+01  0.6000E+01
    -36.701  0.0000E+00  0.0000E+00  0.6000E+01  0.6000E+01
    -36.518  0.0000E+00  0.0000E+00  0.6000E+01  0.6000E+01
    -36.335  0.0000E+00  0.0000E+00  0.6000E+01  0.6000E+01
    -36.153  0.0000E+00  0.0000E+00  0.6000E+01  0.6000E+01
    -35.970  0.0000E+00  0.0000E+00  0.6000E+01  0.6000E+01
    -35.787  0.0000E+00  0.0000E+00  0.6000E+01  0.6000E+01
    -35.604  0.0000E+00  0.0000E+00  0.6000E+01  0.6000E+01
    -35.421  0.0000E+00  0.0000E+00  0.6000E+01  0.6000E+01
    -35.239  0.0000E+00  0.0000E+00  0.6000E+01  0.6000E+01
    -35.056  0.0000E+00  0.0000E+00  0.6000E+01  0.6000E+01
    -34.873  0.0000E+00  0.0000E+00  0.6000E+01  0.6000E+01
    -34.690  0.0000E+00  0.0000E+00  0.6000E+01  0.6000E+01
    -34.507  0.0000E+00  0.0000E+00  0.6000E+01  0.6000E+01
    -34.325  0.0000E+00  0.0000E+00  0.6000E+01  0.6000E+01
    -34.142  0.0000E+00  0.0000E+00  0.6000E+01  0.6000E+01
    -33.959  0.0000E+00  0.0000E+00  0.6000E+01  0.6000E+01
    -33.776  0.0000E+00  0.0000E+00  0.6000E+01  0.6000E+01
    -33.593  0.0000E+00  0.0000E+00  0.6000E+01  0.6000E+01
    -33.411  0.0000E+00  0.0000E+00  0.6000E+01  0.6000E+01
    -33.228  0.0000E+00  0.0000E+00  0.6000E+01  0.6000E+01
    -33.045  0.0000E+00  0.0000E+00  0.6000E+01  0.6000E+01
    -32.862  0.0000E+00  0.0000E+00  0.6000E+01  0.6000E+01
    -32.679  0.0000E+00  0.0000E+00  0.6000E+01  0.6000E+01
    -32.497  0.0000E+00  0.0000E+00  0.6000E+01  0.6000E+01
    -32.314  0.0000E+00  0.0000E+00  0.6000E+01  0.6000E+01
    -32.131  0.0000E+00  0.0000E+00  0.6000E+01  0.6000E+01
    -31.948  0.0000E+00  0.0000E+00  0.6000E+01  0.6000E+01
    -31.765  0.0000E+00  0.0000E+00  0.6000E+01  0.6000E+01
    -31.583  0.0000E+00  0.0000E+00  0.6000E+01  0.6000E+01
    -31.400  0.0000E+00  0.0000E+00  0.6000E+01  0.6000E+01
    -31.217  0.0000E+00  0.0000E+00  0.6000E+01  0.6000E+01
    -31.034  0.0000E+00  0.0000E+00  0.6000E+01  0.6000E+01
    -30.851  0.0000E+00  0.0000E+00  0.6000E+01  0.6000E+01
    -30.669  0.0000E+00  0.0000E+00  0.6000E+01  0.6000E+01
    -30.486  0.0000E+00  0.0000E+00  0.6000E+01  0.6000E+01
    -30.303  0.0000E+00  0.0000E+00  0.6000E+01  0.6000E+01
    -30.120  0.0000E+00  0.0000E+00  0.6000E+01  0.6000E+01
    -29.937  0.0000E+00  0.0000E+00  0.6000E+01  0.6000E+01
    -29.755  0.0000E+00  0.0000E+00  0.6000E+01  0.6000E+01
    -29.572  0.0000E+00  0.0000E+00  0.6000E+01  0.6000E+01
    -29.389  0.0000E+00  0.0000E+00  0.6000E+01  0.6000E+01
    -29.206  0.1094E+02  0.1094E+02  0.8000E+01  0.8000E+01
    -29.023  0.0000E+00  0.0000E+00  0.8000E+01  0.8000E+01
    -28.841  0.0000E+00  0.0000E+00  0.8000E+01  0.8000E+01
    -28.658  0.0000E+00  0.0000E+00  0.8000E+01  0.8000E+01
    -28.475  0.0000E+00  0.0000E+00  0.8000E+01  0.8000E+01
    -28.292  0.0000E+00  0.0000E+00  0.8000E+01  0.8000E+01
    -28.109  0.0000E+00  0.0000E+00  0.8000E+01  0.8000E+01
    -27.927  0.9069E+01  0.9069E+01  0.9658E+01  0.9658E+01
    -27.744  0.0000E+00  0.0000E+00  0.1000E+02  0.1000E+02
    -27.561  0.0000E+00  0.0000E+00  0.1000E+02  0.1000E+02
    -27.378  0.0000E+00  0.0000E+00  0.1000E+02  0.1000E+02
    -27.195  0.0000E+00  0.0000E+00  0.1000E+02  0.1000E+02
    -27.013  0.0000E+00  0.0000E+00  0.1000E+02  0.1000E+02
    -26.830  0.1094E+02  0.1094E+02  0.1200E+02  0.1200E+02
    -26.647  0.3109E+01  0.3109E+01  0.1257E+02  0.1257E+02
    -26.464  0.0000E+00  0.0000E+00  0.1400E+02  0.1400E+02
    -26.281  0.3034E-03  0.3035E-03  0.1400E+02  0.1400E+02
    -26.099  0.1094E+02  0.1094E+02  0.1800E+02  0.1800E+02
    -25.916  0.0000E+00  0.0000E+00  0.1800E+02  0.1800E+02
    -25.733  0.0000E+00  0.0000E+00  0.1800E+02  0.1800E+02
    -25.550  0.0000E+00  0.0000E+00  0.1800E+02  0.1800E+02
    -25.367  0.0000E+00  0.0000E+00  0.1800E+02  0.1800E+02
    -25.185  0.0000E+00  0.0000E+00  0.1800E+02  0.1800E+02
    -25.002  0.0000E+00  0.0000E+00  0.1800E+02  0.1800E+02
    -24.819  0.0000E+00  0.0000E+00  0.1800E+02  0.1800E+02
    -24.636  0.0000E+00  0.0000E+00  0.1800E+02  0.1800E+02
    -24.453  0.0000E+00  0.0000E+00  0.1800E+02  0.1800E+02
    -24.271  0.0000E+00  0.0000E+00  0.1800E+02  0.1800E+02
    -24.088  0.0000E+00  0.0000E+00  0.1800E+02  0.1800E+02
    -23.905  0.0000E+00  0.0000E+00  0.1800E+02  0.1800E+02
    -23.722  0.0000E+00  0.0000E+00  0.1800E+02  0.1800E+02
    -23.539  0.0000E+00  0.0000E+00  0.1800E+02  0.1800E+02
    -23.357  0.1094E+02  0.1094E+02  0.2000E+02  0.2000E+02
    -23.174  0.0000E+00  0.0000E+00  0.2200E+02  0.2200E+02
    -22.991  0.0000E+00  0.0000E+00  0.2200E+02  0.2200E+02
    -22.808  0.0000E+00  0.0000E+00  0.2200E+02  0.2200E+02
    -22.625  0.0000E+00  0.0000E+00  0.2200E+02  0.2200E+02
    -22.443  0.1144E+02  0.1144E+02  0.2409E+02  0.2409E+02
    -22.260  0.1094E+02  0.1094E+02  0.2800E+02  0.2800E+02
    -22.077  0.1094E+02  0.1094E+02  0.3200E+02  0.3200E+02
    -21.894  0.0000E+00  0.0000E+00  0.3200E+02  0.3200E+02
    -21.711  0.0000E+00  0.0000E+00  0.3200E+02  0.3200E+02
    -21.529  0.5945E+01  0.5945E+01  0.3309E+02  0.3309E+02
    -21.346  0.0000E+00  0.0000E+00  0.3400E+02  0.3400E+02
    -21.163  0.1094E+02  0.1094E+02  0.3600E+02  0.3600E+02
    -20.980  0.0000E+00  0.0000E+00  0.3600E+02  0.3600E+02
    -20.797  0.8304E+01  0.8304E+01  0.3752E+02  0.3752E+02
    -20.615  0.0000E+00  0.0000E+00  0.3800E+02  0.3800E+02
    -20.432  0.0000E+00  0.0000E+00  0.3800E+02  0.3800E+02
    -20.249  0.0000E+00  0.0000E+00  0.3800E+02  0.3800E+02
    -20.066  0.0000E+00  0.0000E+00  0.3800E+02  0.3800E+02
    -19.883  0.0000E+00  0.0000E+00  0.3800E+02  0.3800E+02
    -19.701  0.0000E+00  0.0000E+00  0.3800E+02  0.3800E+02
    -19.518  0.1094E+02  0.1094E+02  0.4000E+02  0.4000E+02
    -19.335  0.1007E+02  0.1007E+02  0.4184E+02  0.4184E+02
    -19.152  0.0000E+00  0.0000E+00  0.4200E+02  0.4200E+02
    -18.969  0.0000E+00  0.0000E+00  0.4200E+02  0.4200E+02
    -18.787  0.3284E-09  0.3284E-09  0.4200E+02  0.4200E+02
    -18.604  0.0000E+00  0.0000E+00  0.4400E+02  0.4400E+02
    -18.421  0.1094E+02  0.1094E+02  0.4600E+02  0.4600E+02
    -18.238  0.4214E-11  0.4214E-11  0.4600E+02  0.4600E+02
    -18.055  0.0000E+00  0.0000E+00  0.4800E+02  0.4800E+02
    -17.873  0.2188E+02  0.2188E+02  0.5200E+02  0.5200E+02
    -17.690  0.9856E+01  0.9856E+01  0.5380E+02  0.5380E+02
    -17.507  0.0000E+00  0.0000E+00  0.5600E+02  0.5600E+02
    -17.324  0.6200E+00  0.6200E+00  0.5611E+02  0.5611E+02
    -17.141  0.0000E+00  0.0000E+00  0.5800E+02  0.5800E+02
    -16.959  0.8054E-01  0.8054E-01  0.5801E+02  0.5801E+02
    -16.776  0.0000E+00  0.0000E+00  0.6000E+02  0.6000E+02
    -16.593  0.0000E+00  0.0000E+00  0.6200E+02  0.6200E+02
    -16.410  0.0000E+00  0.0000E+00  0.6200E+02  0.6200E+02
    -16.227  0.0000E+00  0.0000E+00  0.6200E+02  0.6200E+02
    -16.045  0.0000E+00  0.0000E+00  0.6200E+02  0.6200E+02
    -15.862  0.1094E+02  0.1094E+02  0.6400E+02  0.6400E+02
    -15.679  0.1094E+02  0.1094E+02  0.6600E+02  0.6600E+02
    -15.496  0.0000E+00  0.0000E+00  0.6600E+02  0.6600E+02
    -15.313  0.1094E+02  0.1094E+02  0.6800E+02  0.6800E+02
    -15.131  0.0000E+00  0.0000E+00  0.7000E+02  0.7000E+02
    -14.948  0.0000E+00  0.0000E+00  0.7000E+02  0.7000E+02
    -14.765  0.2153E+02  0.2153E+02  0.7394E+02  0.7394E+02
    -14.582  0.0000E+00  0.0000E+00  0.7600E+02  0.7600E+02
    -14.399  0.1536E-01  0.1536E-01  0.7600E+02  0.7600E+02
    -14.217  0.4948E-01  0.4948E-01  0.7801E+02  0.7801E+02
    -14.034  0.1094E+02  0.1094E+02  0.8400E+02  0.8400E+02
    -13.851  0.1094E+02  0.1094E+02  0.8800E+02  0.8800E+02
    -13.668  0.0000E+00  0.0000E+00  0.9000E+02  0.9000E+02
    -13.485  0.4072E+00  0.4072E+00  0.9207E+02  0.9207E+02
    -13.303  0.1094E+02  0.1094E+02  0.9600E+02  0.9600E+02
    -13.120  0.2931E+01  0.2931E+01  0.9854E+02  0.9854E+02
    -12.937  0.5284E-13  0.5284E-13  0.1000E+03  0.1000E+03
    -12.754  0.1094E+02  0.1094E+02  0.1060E+03  0.1060E+03
    -12.571  0.1094E+02  0.1094E+02  0.1100E+03  0.1100E+03
    -12.389  0.1094E+02  0.1094E+02  0.1120E+03  0.1120E+03
    -12.206  0.3486E+00  0.3486E+00  0.1141E+03  0.1141E+03
    -12.023  0.1093E+02  0.1093E+02  0.1200E+03  0.1200E+03
    -11.840  0.0000E+00  0.0000E+00  0.1200E+03  0.1200E+03
    -11.657  0.3637E+00  0.3637E+00  0.1201E+03  0.1201E+03
    -11.475  0.1094E+02  0.1094E+02  0.1240E+03  0.1240E+03
    -11.292  0.1090E+02  0.1090E+02  0.1260E+03  0.1260E+03
    -11.109  0.1094E+02  0.1094E+02  0.1280E+03  0.1280E+03
    -10.926  0.0000E+00  0.0000E+00  0.1300E+03  0.1300E+03
    -10.743  0.2188E+02  0.2188E+02  0.1340E+03  0.1340E+03
    -10.561  0.1094E+02  0.1094E+02  0.1380E+03  0.1380E+03
    -10.378  0.0000E+00  0.0000E+00  0.1400E+03  0.1400E+03
    -10.195  0.2233E-03  0.2233E-03  0.1400E+03  0.1400E+03
    -10.012  0.1094E+02  0.1094E+02  0.1440E+03  0.1440E+03
     -9.829  0.1094E+02  0.1094E+02  0.1460E+03  0.1460E+03
     -9.647  0.1647E-04  0.1647E-04  0.1500E+03  0.1500E+03
     -9.464  0.2717E-03  0.2717E-03  0.1520E+03  0.1520E+03
     -9.281  0.0000E+00  0.0000E+00  0.1540E+03  0.1540E+03
     -9.098  0.0000E+00  0.0000E+00  0.1540E+03  0.1540E+03
     -8.915  0.1094E+02  0.1094E+02  0.1560E+03  0.1560E+03
     -8.733  0.0000E+00  0.0000E+00  0.1580E+03  0.1580E+03
     -8.550  0.0000E+00  0.0000E+00  0.1580E+03  0.1580E+03
     -8.367  0.1031E+02  0.1031E+02  0.1599E+03  0.1599E+03
     -8.184  0.0000E+00  0.0000E+00  0.1600E+03  0.1600E+03
     -8.001  0.0000E+00  0.0000E+00  0.1600E+03  0.1600E+03
     -7.819  0.0000E+00  0.0000E+00  0.1600E+03  0.1600E+03
     -7.636  0.0000E+00  0.0000E+00  0.1600E+03  0.1600E+03
     -7.453  0.0000E+00  0.0000E+00  0.1620E+03  0.1620E+03
     -7.270  0.1094E+02  0.1094E+02  0.1640E+03  0.1640E+03
     -7.087  0.0000E+00  0.0000E+00  0.1660E+03  0.1660E+03
     -6.905  0.0000E+00  0.0000E+00  0.1660E+03  0.1660E+03
     -6.722  0.0000E+00  0.0000E+00  0.1660E+03  0.1660E+03
     -6.539  0.0000E+00  0.0000E+00  0.1660E+03  0.1660E+03
     -6.356  0.0000E+00  0.0000E+00  0.1660E+03  0.1660E+03
     -6.173  0.0000E+00  0.0000E+00  0.1660E+03  0.1660E+03
     -5.991  0.0000E+00  0.0000E+00  0.1660E+03  0.1660E+03
     -5.808  0.0000E+00  0.0000E+00  0.1660E+03  0.1660E+03
     -5.625  0.6049E-04  0.6049E-04  0.1660E+03  0.1660E+03
     -5.442  0.0000E+00  0.0000E+00  0.1680E+03  0.1680E+03
     -5.259  0.0000E+00  0.0000E+00  0.1700E+03  0.1700E+03
     -5.077  0.0000E+00  0.0000E+00  0.1700E+03  0.1700E+03
     -4.894  0.1094E+02  0.1094E+02  0.1720E+03  0.1720E+03
     -4.711  0.0000E+00  0.0000E+00  0.1720E+03  0.1720E+03
     -4.528  0.0000E+00  0.0000E+00  0.1720E+03  0.1720E+03
     -4.345  0.4961E+01  0.4961E+01  0.1729E+03  0.1729E+03
     -4.163  0.1094E+02  0.1094E+02  0.1760E+03  0.1760E+03
     -3.980  0.5924E+00  0.5924E+00  0.1781E+03  0.1781E+03
     -3.797  0.0000E+00  0.0000E+00  0.1820E+03  0.1820E+03
     -3.614  0.1399E-03  0.1399E-03  0.1820E+03  0.1820E+03
     -3.431  0.0000E+00  0.0000E+00  0.1840E+03  0.1840E+03
     -3.249  0.5345E+01  0.5345E+01  0.1870E+03  0.1870E+03
     -3.066  0.0000E+00  0.0000E+00  0.1880E+03  0.1880E+03
     -2.883  0.0000E+00  0.0000E+00  0.1900E+03  0.1900E+03
     -2.700  0.1090E+02  0.1090E+02  0.1920E+03  0.1920E+03
     -2.517  0.0000E+00  0.0000E+00  0.1920E+03  0.1920E+03
     -2.335  0.0000E+00  0.0000E+00  0.1920E+03  0.1920E+03
     -2.152  0.0000E+00  0.0000E+00  0.1920E+03  0.1920E+03
     -1.969  0.1087E+02  0.1087E+02  0.1940E+03  0.1940E+03
     -1.786  0.2671E-04  0.2672E-04  0.1940E+03  0.1940E+03
     -1.603  0.1094E+02  0.1094E+02  0.1980E+03  0.1980E+03
     -1.421  0.8844E-03  0.8845E-03  0.1980E+03  0.1980E+03
     -1.238  0.1095E+02  0.1095E+02  0.2020E+03  0.2020E+03
     -1.055  0.1094E+02  0.1094E+02  0.2060E+03  0.2060E+03
     -0.872  0.1094E+02  0.1094E+02  0.2100E+03  0.2100E+03
     -0.689  0.2034E+02  0.2034E+02  0.2137E+03  0.2137E+03
     -0.507  0.1028E+02  0.1028E+02  0.2179E+03  0.2179E+03
     -0.324  0.5133E+00  0.5132E+00  0.2221E+03  0.2221E+03
     -0.141  0.1094E+02  0.1094E+02  0.2280E+03  0.2280E+03
      0.042  0.1102E+02  0.1102E+02  0.2320E+03  0.2320E+03
      0.225  0.1094E+02  0.1094E+02  0.2380E+03  0.2380E+03
      0.407  0.1119E+02  0.1119E+02  0.2440E+03  0.2440E+03
      0.590  0.1935E+02  0.1935E+02  0.2515E+03  0.2515E+03
      0.773  0.0000E+00  0.0000E+00  0.2560E+03  0.2560E+03
      0.956  0.0000E+00  0.0000E+00  0.2560E+03  0.2560E+03
      1.139  0.0000E+00  0.0000E+00  0.2560E+03  0.2560E+03
      1.321  0.0000E+00  0.0000E+00  0.2560E+03  0.2560E+03
      1.504  0.0000E+00  0.0000E+00  0.2560E+03  0.2560E+03
      1.687  0.0000E+00  0.0000E+00  0.2560E+03  0.2560E+03
      1.870  0.0000E+00  0.0000E+00  0.2560E+03  0.2560E+03
      2.053  0.0000E+00  0.0000E+00  0.2560E+03  0.2560E+03
      2.235  0.0000E+00  0.0000E+00  0.2560E+03  0.2560E+03
      2.418  0.0000E+00  0.0000E+00  0.2560E+03  0.2560E+03
      2.601  0.0000E+00  0.0000E+00  0.2560E+03  0.2560E+03
      2.784  0.0000E+00  0.0000E+00  0.2560E+03  0.2560E+03
      2.967  0.0000E+00  0.0000E+00  0.2560E+03  0.2560E+03
      3.149  0.0000E+00  0.0000E+00  0.2560E+03  0.2560E+03
