   55   55    1    2
  0.1454545E+03  0.2000000E-08  0.2000000E-08  0.2000000E-08  0.5000000E-15
  1.000000000000000E-004
  CAR 
 c2_oh2_ruthenium_mol                    
    166      1    128
 
  0.0000000E+00  0.0000000E+00  0.0000000E+00  0.1000000E+01
    1      -49.197767    -49.197767
    2      -49.035953    -49.035953
    3      -48.823363    -48.823363
    4      -29.266745    -29.266745
    5      -27.933239    -27.933239
    6      -26.898856    -26.898856
    7      -26.642890    -26.642890
    8      -26.252820    -26.252820
    9      -26.174537    -26.174537
   10      -23.434166    -23.434166
   11      -23.281200    -23.281200
   12      -22.519330    -22.519330
   13      -22.430581    -22.430581
   14      -22.329002    -22.329002
   15      -22.198021    -22.198021
   16      -22.112475    -22.112475
   17      -21.529302    -21.529302
   18      -21.189981    -21.189981
   19      -20.802305    -20.802305
   20      -19.566857    -19.566857
   21      -19.344904    -19.344904
   22      -18.740265    -18.740265
   23      -18.454988    -18.454988
   24      -18.187463    -18.187463
   25      -17.929290    -17.929290
   26      -17.900096    -17.900096
   27      -17.698831    -17.698831
   28      -17.620875    -17.620875
   29      -17.312942    -17.312942
   30      -16.941291    -16.941291
   31      -16.679605    -16.679605
   32      -15.900109    -15.900109
   33      -15.735766    -15.735766
   34      -15.349713    -15.349713
   35      -15.285021    -15.285021
   36      -14.825001    -14.825001
   37      -14.777997    -14.777997
   38      -14.717311    -14.717311
   39      -14.378213    -14.378213
   40      -14.198084    -14.198084
   41      -14.133000    -14.133000
   42      -14.074371    -14.074371
   43      -13.944964    -13.944964
   44      -13.909393    -13.909393
   45      -13.800117    -13.800117
   46      -13.569360    -13.569360
   47      -13.472728    -13.472728
   48      -13.380414    -13.380414
   49      -13.206524    -13.206524
   50      -13.115365    -13.115365
   51      -12.882192    -12.882192
   52      -12.876850    -12.876850
   53      -12.824916    -12.824916
   54      -12.720604    -12.720604
   55      -12.601145    -12.601145
   56      -12.458081    -12.458081
   57      -12.347070    -12.347070
   58      -12.192634    -12.192634
   59      -12.147063    -12.147063
   60      -12.044865    -12.044865
   61      -11.644369    -11.644369
   62      -11.520246    -11.520246
   63      -11.310818    -11.310818
   64      -11.148182    -11.148182
   65      -11.076027    -11.076027
   66      -10.820313    -10.820313
   67      -10.777631    -10.777631
   68      -10.696336    -10.696336
   69      -10.586582    -10.586582
   70      -10.467859    -10.467859
   71      -10.165936    -10.165936
   72      -10.082638    -10.082638
   73       -9.890713     -9.890713
   74       -9.803802     -9.803802
   75       -9.744531     -9.744531
   76       -9.613525     -9.613525
   77       -9.435060     -9.435060
   78       -8.986884     -8.986884
   79       -8.826465     -8.826465
   80       -8.378108     -8.378108
   81       -7.550897     -7.550897
   82       -7.350072     -7.350072
   83       -7.193122     -7.193122
   84       -5.593873     -5.593873
   85       -5.377471     -5.377471
   86       -4.965050     -4.965050
   87       -4.344528     -4.344528
   88       -4.208495     -4.208495
   89       -4.112883     -4.112883
   90       -3.968400     -3.968400
   91       -3.930610     -3.930610
   92       -3.584389     -3.584389
   93       -3.341265     -3.341265
   94       -3.248354     -3.248354
   95       -2.977835     -2.977836
   96       -2.719038     -2.719038
   97       -1.986590     -1.986589
   98       -1.753845     -1.753846
   99       -1.641773     -1.641773
  100       -1.393884     -1.393884
  101       -1.285728     -1.285729
  102       -1.215379     -1.215379
  103       -1.120176     -1.120176
  104       -0.966780     -0.966780
  105       -0.950974     -0.950972
  106       -0.717060     -0.717060
  107       -0.696971     -0.696972
  108       -0.635976     -0.635974
  109       -0.517539     -0.517539
  110       -0.434545     -0.434544
  111       -0.421831     -0.421831
  112       -0.311911     -0.311911
  113       -0.294153     -0.294154
  114       -0.179470     -0.179471
  115       -0.071763     -0.071761
  116       -0.021231     -0.021232
  117        0.059193      0.059193
  118        0.122603      0.122602
  119        0.189520      0.189521
  120        0.288010      0.288009
  121        0.320511      0.320512
  122        0.391699      0.391700
  123        0.420221      0.420221
  124        0.494658      0.494658
  125        0.531641      0.531641
  126        0.585036      0.585039
  127        0.624149      0.624146
  128        0.656711      0.656700
