       N       E                     dE             d eps       ncg     rms          rms(c)
DAV:   1     0.910170317926E+03    0.91017E+03   -0.58805E+04   768   0.974E+02
DAV:   2    -0.681640327085E+02   -0.97833E+03   -0.97189E+03  1024   0.160E+02
DAV:   3    -0.392658797403E+03   -0.32449E+03   -0.32407E+03   832   0.849E+01
DAV:   4    -0.411550462301E+03   -0.18892E+02   -0.18870E+02   640   0.258E+01
DAV:   5    -0.411850392796E+03   -0.29993E+00   -0.29982E+00   896   0.323E+00    0.575E+01
DAV:   6    -0.393407547565E+03    0.18443E+02   -0.37177E+02   512   0.232E+01    0.388E+01
DAV:   7    -0.382739796631E+03    0.10668E+02   -0.23034E+01   768   0.210E+01    0.237E+01
DAV:   8    -0.378457341155E+03    0.42825E+01   -0.17313E+01   768   0.101E+01    0.961E+00
DAV:   9    -0.377280120864E+03    0.11772E+01   -0.54937E+00   768   0.490E+00    0.366E+00
DAV:  10    -0.377240320350E+03    0.39801E-01   -0.38621E-01   768   0.152E+00    0.257E+00
DAV:  11    -0.377100268744E+03    0.14005E+00   -0.16806E-01   768   0.988E-01    0.103E+00
DAV:  12    -0.377031494528E+03    0.68774E-01   -0.75585E-02   768   0.657E-01    0.649E-01
DAV:  13    -0.377012310225E+03    0.19184E-01   -0.20817E-02   768   0.384E-01    0.432E-01
DAV:  14    -0.377002810741E+03    0.94995E-02   -0.11946E-02   768   0.279E-01    0.281E-01
DAV:  15    -0.377003184953E+03   -0.37421E-03   -0.50688E-03   768   0.193E-01    0.224E-01
DAV:  16    -0.377014151168E+03   -0.10966E-01   -0.37478E-03   768   0.171E-01    0.102E-01
DAV:  17    -0.377019176300E+03   -0.50251E-02   -0.81186E-04   768   0.877E-02    0.814E-02
DAV:  18    -0.377023165216E+03   -0.39889E-02   -0.25784E-04   768   0.537E-02    0.665E-02
DAV:  19    -0.377027154348E+03   -0.39891E-02   -0.29216E-04   768   0.516E-02    0.419E-02
DAV:  20    -0.377029056358E+03   -0.19020E-02   -0.92414E-05   768   0.287E-02    0.266E-02
DAV:  21    -0.377030560125E+03   -0.15038E-02   -0.33328E-05   768   0.174E-02    0.158E-02
DAV:  22    -0.377031850915E+03   -0.12908E-02   -0.36927E-05   768   0.158E-02    0.105E-02
DAV:  23    -0.377032479366E+03   -0.62845E-03   -0.17822E-05   640   0.994E-03    0.790E-03
DAV:  24    -0.377032868828E+03   -0.38946E-03   -0.88090E-06   640   0.645E-03    0.478E-03
DAV:  25    -0.377033053000E+03   -0.18417E-03   -0.27976E-06   640   0.349E-03    0.282E-03
DAV:  26    -0.377033206124E+03   -0.15312E-03   -0.23875E-06   640   0.304E-03    0.181E-03
DAV:  27    -0.377033277086E+03   -0.70962E-04   -0.10296E-06   640   0.193E-03    0.134E-03
DAV:  28    -0.377033317989E+03   -0.40903E-04   -0.35407E-07   640   0.124E-03    0.940E-04
DAV:  29    -0.377033346439E+03   -0.28450E-04   -0.24629E-07   640   0.101E-03    0.499E-04
DAV:  30    -0.377033359116E+03   -0.12677E-04   -0.50843E-08   640   0.685E-04    0.322E-04
DAV:  31    -0.377033367031E+03   -0.79153E-05    0.45507E-08   640   0.460E-04
   1 F= -.37703337E+03 E0= -.37703337E+03  d E =-.128879-101  mag=     0.0000
