 vasp.5.3.5 31Mar14 (build Apr 08 2014 12:00:03) complex                        
  
 VASP binary ID code NSC-NSCPATCH-BUILD02 date 2017.03.15  18:46:22
 running on   64 total cores
 distrk:  each k-point on   64 cores,    1 groups
 distr:  one band on NCORES_PER_BAND=   1 cores,   64 groups


--------------------------------------------------------------------------------------------------------


 INCAR:
 POTCAR:    PAW_PBE C_h 06Feb2004                 
 POTCAR:    PAW_PBE C_h 06Feb2004                 
 POTCAR:    PAW_PBE H 15Jun2001                   
 POTCAR:    PAW_PBE N_h 06Feb2004                 
 POTCAR:    PAW_PBE O_h 06Feb2004                 
 POTCAR:    PAW_PBE Ru_pv 28Jan2005               

 ----------------------------------------------------------------------------- 
|                                                                             |
|           W    W    AA    RRRRR   N    N  II  N    N   GGGG   !!!           |
|           W    W   A  A   R    R  NN   N  II  NN   N  G    G  !!!           |
|           W    W  A    A  R    R  N N  N  II  N N  N  G       !!!           |
|           W WW W  AAAAAA  RRRRR   N  N N  II  N  N N  G  GGG   !            |
|           WW  WW  A    A  R   R   N   NN  II  N   NN  G    G                |
|           W    W  A    A  R    R  N    N  II  N    N   GGGG   !!!           |
|                                                                             |
|      For optimal performance we recommend to set                            |
|        NCORE= 4 - approx SQRT( number of cores)                             |
|      NCORE specifies how many cores store one orbital (NPAR=cpu/NCORE).     |
|      This setting can  greatly improve the performance of VASP for DFT.     |
|      The default, NPAR=number of cores might be grossly inefficient         |
|      on modern multi-core architectures or massively parallel machines.     |
|      Do your own testing !!!!                                               |
|      Unfortunately you need to use the default for GW and RPA calculations. |
|      (for HF NCORE is supported but not extensively tested yet)             |
|                                                                             |
 ----------------------------------------------------------------------------- 

 POTCAR:    PAW_PBE C_h 06Feb2004                 
   VRHFIN =C: s2p2                                                              
   LEXCH  = PE                                                                  
   EATOM  =   147.1560 eV,   10.8157 Ry                                         
                                                                                
   TITEL  = PAW_PBE C_h 06Feb2004                                               
   LULTRA =        F    use ultrasoft PP ?                                      
   IUNSCR =        1    unscreen: 0-lin 1-nonlin 2-no                           
   RPACOR =    0.800    partial core radius                                     
   POMASS =   12.011; ZVAL   =    4.000    mass and valenz                      
   RCORE  =    1.100    outmost cutoff radius                                   
   RWIGS  =    1.630; RWIGS  =    0.863    wigner-seitz radius (au A)           
   ENMAX  =  700.000; ENMIN  =  500.000 eV                                      
   ICORE  =        2    local potential                                         
   LCOR   =        T    correct aug charges                                     
   LPAW   =        T    paw PP                                                  
   EAUG   =  946.768                                                            
   DEXC   =    0.000                                                            
   RMAX   =    1.128    core radius for proj-oper                               
   RAUG   =    1.300    factor for augmentation sphere                          
   RDEP   =    1.162    radius for radial grids                                 
   RDEPT  =    1.088    core radius for aug-charge                              
                                                                                
   Atomic configuration                                                         
    4 entries                                                                   
     n  l   j            E        occ.                                          
     1  0  0.50      -273.3789   2.0000                                         
     2  0  0.50       -13.7508   2.0000                                         
     2  1  0.50        -5.2854   2.0000                                         
     3  2  1.50        -5.4423   0.0000                                         
   Description                                                                  
     l       E           TYP  RCUT    TYP  RCUT                                 
     0    -13.7508458     23  1.100                                             
     0     -8.2022199     23  1.100                                             
     1     -5.2854383     23  1.100                                             
     1      1.1560700     23  1.100                                             
     2     -5.4423304      7  1.100                                             
  local pseudopotential read in
  partial core-charges read in
  partial kinetic energy density read in
  atomic valenz-charges read in
  non local Contribution for L=           0  read in
    real space projection operators read in
  non local Contribution for L=           0  read in
    real space projection operators read in
  non local Contribution for L=           1  read in
    real space projection operators read in
  non local Contribution for L=           1  read in
    real space projection operators read in
    PAW grid and wavefunctions read in
 
   number of l-projection  operators is LMAX  =           4
   number of lm-projection operators is LMMAX =           8
 
 POTCAR:    PAW_PBE C_h 06Feb2004                 
   VRHFIN =C: s2p2                                                              
   LEXCH  = PE                                                                  
   EATOM  =   147.1560 eV,   10.8157 Ry                                         
                                                                                
   TITEL  = PAW_PBE C_h 06Feb2004                                               
   LULTRA =        F    use ultrasoft PP ?                                      
   IUNSCR =        1    unscreen: 0-lin 1-nonlin 2-no                           
   RPACOR =    0.800    partial core radius                                     
   POMASS =   12.011; ZVAL   =    4.000    mass and valenz                      
   RCORE  =    1.100    outmost cutoff radius                                   
   RWIGS  =    1.630; RWIGS  =    0.863    wigner-seitz radius (au A)           
   ENMAX  =  700.000; ENMIN  =  500.000 eV                                      
   ICORE  =        2    local potential                                         
   LCOR   =        T    correct aug charges                                     
   LPAW   =        T    paw PP                                                  
   EAUG   =  946.768                                                            
   DEXC   =    0.000                                                            
   RMAX   =    1.128    core radius for proj-oper                               
   RAUG   =    1.300    factor for augmentation sphere                          
   RDEP   =    1.162    radius for radial grids                                 
   RDEPT  =    1.088    core radius for aug-charge                              
                                                                                
   Atomic configuration                                                         
    4 entries                                                                   
     n  l   j            E        occ.                                          
     1  0  0.50      -273.3789   2.0000                                         
     2  0  0.50       -13.7508   2.0000                                         
     2  1  0.50        -5.2854   2.0000                                         
     3  2  1.50        -5.4423   0.0000                                         
   Description                                                                  
     l       E           TYP  RCUT    TYP  RCUT                                 
     0    -13.7508458     23  1.100                                             
     0     -8.2022199     23  1.100                                             
     1     -5.2854383     23  1.100                                             
     1      1.1560700     23  1.100                                             
     2     -5.4423304      7  1.100                                             
  local pseudopotential read in
  partial core-charges read in
  partial kinetic energy density read in
  atomic valenz-charges read in
  non local Contribution for L=           0  read in
    real space projection operators read in
  non local Contribution for L=           0  read in
    real space projection operators read in
  non local Contribution for L=           1  read in
    real space projection operators read in
  non local Contribution for L=           1  read in
    real space projection operators read in
    PAW grid and wavefunctions read in
 
   number of l-projection  operators is LMAX  =           4
   number of lm-projection operators is LMMAX =           8
 
 POTCAR:    PAW_PBE H 15Jun2001                   
   VRHFIN =H: ultrasoft test                                                    
   LEXCH  = PE                                                                  
   EATOM  =    12.4884 eV,    0.9179 Ry                                         
                                                                                
   TITEL  = PAW_PBE H 15Jun2001                                                 
   LULTRA =        F    use ultrasoft PP ?                                      
   IUNSCR =        0    unscreen: 0-lin 1-nonlin 2-no                           
   RPACOR =    0.000    partial core radius                                     
   POMASS =    1.000; ZVAL   =    1.000    mass and valenz                      
   RCORE  =    1.100    outmost cutoff radius                                   
   RWIGS  =    0.700; RWIGS  =    0.370    wigner-seitz radius (au A)           
   ENMAX  =  250.000; ENMIN  =  200.000 eV                                      
   RCLOC  =    0.701    cutoff for local pot                                    
   LCOR   =        T    correct aug charges                                     
   LPAW   =        T    paw PP                                                  
   EAUG   =  400.000                                                            
   RMAX   =    1.123    core radius for proj-oper                               
   RAUG   =    1.200    factor for augmentation sphere                          
   RDEP   =    1.112    radius for radial grids                                 
   RDEPT  =    0.926    core radius for aug-charge                              
                                                                                
   Atomic configuration                                                         
    2 entries                                                                   
     n  l   j            E        occ.                                          
     1  0  0.50        -6.4927   1.0000                                         
     2  1  0.50        -3.4015   0.0000                                         
   Description                                                                  
     l       E           TYP  RCUT    TYP  RCUT                                 
     0     -6.4927494     23  1.100                                             
     0      6.8029130     23  1.100                                             
     1     -4.0817478     23  1.100                                             
  local pseudopotential read in
  atomic valenz-charges read in
  non local Contribution for L=           0  read in
    real space projection operators read in
  non local Contribution for L=           0  read in
    real space projection operators read in
  non local Contribution for L=           1  read in
    real space projection operators read in
    PAW grid and wavefunctions read in
 
   number of l-projection  operators is LMAX  =           3
   number of lm-projection operators is LMMAX =           5
 
 POTCAR:    PAW_PBE N_h 06Feb2004                 
   VRHFIN =N: s2p3                                                              
   LEXCH  = PE                                                                  
   EATOM  =   264.5486 eV,   19.4438 Ry                                         
                                                                                
   TITEL  = PAW_PBE N_h 06Feb2004                                               
   LULTRA =        F    use ultrasoft PP ?                                      
   IUNSCR =        1    unscreen: 0-lin 1-nonlin 2-no                           
   RPACOR =    0.800    partial core radius                                     
   POMASS =   14.001; ZVAL   =    5.000    mass and valenz                      
   RCORE  =    1.100    outmost cutoff radius                                   
   RWIGS  =    1.480; RWIGS  =    0.783    wigner-seitz radius (au A)           
   ENMAX  =  700.000; ENMIN  =  500.000 eV                                      
   ICORE  =        2    local potential                                         
   LCOR   =        T    correct aug charges                                     
   LPAW   =        T    paw PP                                                  
   EAUG   =  904.640                                                            
   DEXC   =    0.000                                                            
   RMAX   =    1.127    core radius for proj-oper                               
   RAUG   =    1.300    factor for augmentation sphere                          
   RDEP   =    1.115    radius for radial grids                                 
   RDEPT  =    1.106    core radius for aug-charge                              
                                                                                
   Atomic configuration                                                         
    4 entries                                                                   
     n  l   j            E        occ.                                          
     1  0  0.50      -384.7179   2.0000                                         
     2  0  0.50       -18.5828   2.0000                                         
     2  1  0.50        -7.0898   3.0000                                         
     3  2  1.50        -6.8029   0.0000                                         
   Description                                                                  
     l       E           TYP  RCUT    TYP  RCUT                                 
     0    -18.5828117     23  1.100                                             
     0    -15.0750597     23  1.100                                             
     1     -7.0897851     23  1.100                                             
     1     -1.9663412     23  1.100                                             
     2     -6.8029130      7  1.100                                             
  local pseudopotential read in
  partial core-charges read in
  partial kinetic energy density read in
  kinetic energy density of atom read in
  atomic valenz-charges read in
  non local Contribution for L=           0  read in
    real space projection operators read in
  non local Contribution for L=           0  read in
    real space projection operators read in
  non local Contribution for L=           1  read in
    real space projection operators read in
  non local Contribution for L=           1  read in
    real space projection operators read in
    PAW grid and wavefunctions read in
 
   number of l-projection  operators is LMAX  =           4
   number of lm-projection operators is LMMAX =           8
 
 POTCAR:    PAW_PBE O_h 06Feb2004                 
   VRHFIN =O: s2p4                                                              
   LEXCH  = PE                                                                  
   EATOM  =   432.3788 eV,   31.7789 Ry                                         
                                                                                
   TITEL  = PAW_PBE O_h 06Feb2004                                               
   LULTRA =        F    use ultrasoft PP ?                                      
   IUNSCR =        1    unscreen: 0-lin 1-nonlin 2-no                           
   RPACOR =    0.800    partial core radius                                     
   POMASS =   16.000; ZVAL   =    6.000    mass and valenz                      
   RCORE  =    1.100    outmost cutoff radius                                   
   RWIGS  =    1.400; RWIGS  =    0.741    wigner-seitz radius (au A)           
   ENMAX  =  700.000; ENMIN  =  500.000 eV                                      
   ICORE  =        2    local potential                                         
   LCOR   =        T    correct aug charges                                     
   LPAW   =        T    paw PP                                                  
   EAUG   =  888.804                                                            
   DEXC   =    0.000                                                            
   RMAX   =    1.128    core radius for proj-oper                               
   RAUG   =    1.300    factor for augmentation sphere                          
   RDEP   =    1.125    radius for radial grids                                 
   RDEPT  =    1.088    core radius for aug-charge                              
                                                                                
   Atomic configuration                                                         
    4 entries                                                                   
     n  l   j            E        occ.                                          
     1  0  0.50      -514.6923   2.0000                                         
     2  0  0.50       -23.9615   2.0000                                         
     2  1  0.50        -9.0305   4.0000                                         
     3  2  1.50        -9.5241   0.0000                                         
   Description                                                                  
     l       E           TYP  RCUT    TYP  RCUT                                 
     0    -23.9615319     23  1.100                                             
     0    -25.3221145     23  1.100                                             
     1     -9.0304911     23  1.100                                             
     1     -5.4802209     23  1.100                                             
     2     -9.5240782      7  1.100                                             
  local pseudopotential read in
  partial core-charges read in
  partial kinetic energy density read in
  atomic valenz-charges read in
  non local Contribution for L=           0  read in
    real space projection operators read in
  non local Contribution for L=           0  read in
    real space projection operators read in
  non local Contribution for L=           1  read in
    real space projection operators read in
  non local Contribution for L=           1  read in
    real space projection operators read in
    PAW grid and wavefunctions read in
 
   number of l-projection  operators is LMAX  =           4
   number of lm-projection operators is LMMAX =           8
 
 POTCAR:    PAW_PBE Ru_pv 28Jan2005               
   VRHFIN =Ru: 4p5s4d                                                           
   LEXCH  = PE                                                                  
   EATOM  =  1873.4746 eV,  137.6965 Ry                                         
                                                                                
   TITEL  = PAW_PBE Ru_pv 28Jan2005                                             
   LULTRA =        F    use ultrasoft PP ?                                      
   IUNSCR =        1    unscreen: 0-lin 1-nonlin 2-no                           
   RPACOR =    2.170    partial core radius                                     
   POMASS =  101.070; ZVAL   =   14.000    mass and valenz                      
   RCORE  =    2.500    outmost cutoff radius                                   
   RWIGS  =    2.650; RWIGS  =    1.402    wigner-seitz radius (au A)           
   ENMAX  =  240.049; ENMIN  =  180.037 eV                                      
   ICORE  =        3    local potential                                         
   LCOR   =        T    correct aug charges                                     
   LPAW   =        T    paw PP                                                  
   EAUG   =  430.792                                                            
   DEXC   =    0.000                                                            
   RMAX   =    2.546    core radius for proj-oper                               
   RAUG   =    1.300    factor for augmentation sphere                          
   RDEP   =    2.520    radius for radial grids                                 
   RDEPT  =    2.044    core radius for aug-charge                              
                                                                                
   Atomic configuration                                                         
   11 entries                                                                   
     n  l   j            E        occ.                                          
     1  0  0.50    -21933.2692   2.0000                                         
     2  0  0.50     -3153.4096   2.0000                                         
     2  1  1.50     -2823.9548   6.0000                                         
     3  0  0.50      -555.3322   2.0000                                         
     3  1  1.50      -447.1024   6.0000                                         
     3  2  2.50      -273.0570  10.0000                                         
     4  0  0.50       -76.3589   2.0000                                         
     4  1  1.50       -46.4050   6.0000                                         
     4  2  2.50        -5.2029   7.0000                                         
     5  0  0.50        -4.2392   1.0000                                         
     4  3  2.50        -1.3606   0.0000                                         
   Description                                                                  
     l       E           TYP  RCUT    TYP  RCUT                                 
     1    -46.4050190     23  2.100                                             
     1      4.0817478     23  2.100                                             
     2     -5.2028758     23  2.500                                             
     2     -6.5634584     23  2.500                                             
     0     -4.2392192     23  2.500                                             
     0      7.0918828     23  2.500                                             
     3     -5.4423304     23  2.500                                             
  local pseudopotential read in
  partial core-charges read in
  partial kinetic energy density read in
  atomic valenz-charges read in
  non local Contribution for L=           1  read in
    real space projection operators read in
  non local Contribution for L=           1  read in
    real space projection operators read in
  non local Contribution for L=           2  read in
    real space projection operators read in
  non local Contribution for L=           2  read in
    real space projection operators read in
  non local Contribution for L=           0  read in
    real space projection operators read in
  non local Contribution for L=           0  read in
    real space projection operators read in
    PAW grid and wavefunctions read in
 
   number of l-projection  operators is LMAX  =           6
   number of lm-projection operators is LMMAX =          18
 
 Optimization of the real space projectors (new method)

 maximal supplied QI-value         = 34.20
 optimisation between [QCUT,QGAM] = [ 13.34, 27.02] = [ 49.83,204.46] Ry 
 Optimized for a Real-space Cutoff    1.04 Angstroem

   l    n(q)    QCUT    max X(q) W(low)/X(q) W(high)/X(q)  e(spline) 
   0      8    13.340   134.812    0.72E-04    0.21E-03    0.27E-06
   0      8    13.340    80.524    0.70E-04    0.21E-03    0.27E-06
   1      8    13.340    79.026    0.21E-03    0.16E-03    0.33E-06
   1      8    13.340    45.188    0.20E-03    0.15E-03    0.33E-06
 Optimization of the real space projectors (new method)

 maximal supplied QI-value         = 34.20
 optimisation between [QCUT,QGAM] = [ 13.34, 27.02] = [ 49.83,204.46] Ry 
 Optimized for a Real-space Cutoff    1.04 Angstroem

   l    n(q)    QCUT    max X(q) W(low)/X(q) W(high)/X(q)  e(spline) 
   0      8    13.340   134.812    0.72E-04    0.21E-03    0.27E-06
   0      8    13.340    80.524    0.70E-04    0.21E-03    0.27E-06
   1      8    13.340    79.026    0.21E-03    0.16E-03    0.33E-06
   1      8    13.340    45.188    0.20E-03    0.15E-03    0.33E-06
 Optimization of the real space projectors (new method)

 maximal supplied QI-value         = 34.20
 optimisation between [QCUT,QGAM] = [ 13.34, 27.02] = [ 49.83,204.46] Ry 
 Optimized for a Real-space Cutoff    0.98 Angstroem

   l    n(q)    QCUT    max X(q) W(low)/X(q) W(high)/X(q)  e(spline) 
   0      8    13.340    19.460    0.18E-03    0.41E-04    0.19E-06
   0      8    13.340    12.209    0.17E-03    0.45E-04    0.18E-06
   1      7    13.340     4.655    0.16E-03    0.30E-03    0.14E-06
 Optimization of the real space projectors (new method)

 maximal supplied QI-value         = 34.20
 optimisation between [QCUT,QGAM] = [ 13.34, 27.02] = [ 49.83,204.46] Ry 
 Optimized for a Real-space Cutoff    1.04 Angstroem

   l    n(q)    QCUT    max X(q) W(low)/X(q) W(high)/X(q)  e(spline) 
   0      8    13.340   148.539    0.85E-04    0.19E-03    0.21E-06
   0      8    13.340   106.192    0.84E-04    0.19E-03    0.21E-06
   1      8    13.340    73.877    0.18E-03    0.11E-03    0.36E-06
   1      8    13.340    50.042    0.17E-03    0.11E-03    0.36E-06
 Optimization of the real space projectors (new method)

 maximal supplied QI-value         = 34.20
 optimisation between [QCUT,QGAM] = [ 13.34, 27.02] = [ 49.83,204.46] Ry 
 Optimized for a Real-space Cutoff    0.98 Angstroem

   l    n(q)    QCUT    max X(q) W(low)/X(q) W(high)/X(q)  e(spline) 
   0      8    13.340   280.207    0.16E-03    0.35E-03    0.14E-06
   0      8    13.340   228.978    0.16E-03    0.35E-03    0.14E-06
   1      7    13.340    86.127    0.23E-03    0.25E-04    0.30E-06
   1      7    13.340    65.368    0.22E-03    0.27E-04    0.30E-06
 Optimization of the real space projectors (new method)

 maximal supplied QI-value         = 15.12
 optimisation between [QCUT,QGAM] = [ 13.45, 27.06] = [ 50.69,205.06] Ry 
 Optimized for a Real-space Cutoff    1.40 Angstroem

   l    n(q)    QCUT    max X(q) W(low)/X(q) W(high)/X(q)  e(spline) 
   1     11    13.455     3.180    0.18E-04    0.25E-04    0.55E-07
   1     11    13.455     5.351    0.12E-03    0.15E-03    0.24E-06
   2     10    13.455    66.565    0.13E-03    0.46E-04    0.26E-06
   2     10    13.455    63.466    0.13E-03    0.47E-04    0.27E-06
   0     11    13.455    85.644    0.47E-04    0.16E-04    0.33E-06
   0     11    13.455    44.119    0.43E-04    0.15E-04    0.30E-06
  PAW_PBE C_h 06Feb2004                 :
 energy of atom  1       EATOM= -147.1560
 kinetic energy error for atom=    0.0286 (will be added to EATOM!!)
  PAW_PBE C_h 06Feb2004                 :
 energy of atom  2       EATOM= -147.1560
 kinetic energy error for atom=    0.0286 (will be added to EATOM!!)
  PAW_PBE H 15Jun2001                   :
 energy of atom  3       EATOM=  -12.4884
 kinetic energy error for atom=    0.0002 (will be added to EATOM!!)
  PAW_PBE N_h 06Feb2004                 :
 energy of atom  4       EATOM= -264.5486
 kinetic energy error for atom=    0.0847 (will be added to EATOM!!)
  PAW_PBE O_h 06Feb2004                 :
 energy of atom  5       EATOM= -432.3788
 kinetic energy error for atom=    0.1855 (will be added to EATOM!!)
  PAW_PBE Ru_pv 28Jan2005               :
 energy of atom  6       EATOM=-1873.4746
 kinetic energy error for atom=    0.0017 (will be added to EATOM!!)
 
 
 POSCAR: C C H N O Ru                            
  positions in direct lattice
  velocities in cartesian coordinates
 exchange correlation table for  LEXCH =        8
   RHO(1)=    0.500       N(1)  =     2000
   RHO(2)=  100.500       N(2)  =     4000
 


--------------------------------------------------------------------------------------------------------


 ion  position               nearest neighbor table
   1  0.633  0.554  0.487-  47 1.09  53 1.36  12 1.39
   2  0.438  0.566  0.328-  43 1.09   3 1.39   6 1.39
   3  0.456  0.524  0.381-  38 1.09  49 1.36   2 1.39
   4  0.474  0.615  0.450-  34 1.09  49 1.36   5 1.39
   5  0.456  0.660  0.399-  33 1.09   4 1.39   6 1.40
   6  0.438  0.635  0.337-  32 1.09   2 1.39   5 1.40
   7  0.523  0.330  0.675-  26 1.09   8 1.39  16 1.40
   8  0.497  0.372  0.626-  31 1.09  51 1.36   7 1.39
   9  0.602  0.419  0.606-  51 1.37  10 1.40  14 1.47
  10  0.631  0.378  0.654-  28 1.09  16 1.39   9 1.40
  11  0.740  0.529  0.535-  41 1.09  15 1.39  12 1.40
  12  0.701  0.566  0.490-  37 1.09   1 1.39  11 1.40
  13  0.293  0.477  0.568-  45 1.09  25 1.39  17 1.40
  14  0.640  0.469  0.567-  53 1.37  15 1.40   9 1.47
  15  0.708  0.480  0.573-  36 1.09  11 1.39  14 1.40
  16  0.591  0.332  0.689-  27 1.09  10 1.39   7 1.40
  17  0.362  0.489  0.564-  50 1.37  13 1.40  21 1.46
  18  0.408  0.622  0.691-  48 1.09  22 1.39  19 1.40
  19  0.476  0.626  0.677-  44 1.09  20 1.39  18 1.40
  20  0.503  0.586  0.627-  42 1.09  52 1.36  19 1.39
  21  0.398  0.538  0.604-  52 1.38  22 1.40  17 1.46
  22  0.369  0.578  0.654-  30 1.09  18 1.39  21 1.40
  23  0.373  0.406  0.482-  39 1.09  50 1.35  24 1.39
  24  0.305  0.392  0.484-  40 1.09  23 1.39  25 1.40
  25  0.264  0.428  0.528-  46 1.09  13 1.39  24 1.40
  26  0.490  0.295  0.701-   7 1.09
  27  0.613  0.300  0.727-  16 1.09
  28  0.684  0.381  0.665-  10 1.09
  29  0.542  0.362  0.461-  54 0.97
  30  0.316  0.573  0.664-  22 1.09
  31  0.444  0.371  0.614-   8 1.09
  32  0.424  0.668  0.296-   6 1.09
  33  0.456  0.713  0.410-   5 1.09
  34  0.488  0.634  0.499-   4 1.09
  35  0.569  0.418  0.415-  54 0.98
  36  0.738  0.450  0.608-  15 1.09
  37  0.723  0.605  0.459-  12 1.09
  38  0.456  0.470  0.375-   3 1.09
  39  0.406  0.379  0.449-  23 1.09
  40  0.284  0.353  0.452-  24 1.09
  41  0.793  0.537  0.539-  11 1.09
  42  0.556  0.588  0.614-  20 1.09
  43  0.424  0.543  0.280-   2 1.09
  44  0.509  0.660  0.704-  19 1.09
  45  0.263  0.506  0.603-  13 1.09
  46  0.211  0.418  0.531-  25 1.09
  47  0.601  0.582  0.453-   1 1.09
  48  0.385  0.653  0.729-  18 1.09
  49  0.474  0.548  0.441-   4 1.36   3 1.36  55 2.12
  50  0.402  0.453  0.521-  23 1.35  17 1.37  55 2.06
  51  0.535  0.416  0.592-   8 1.36   9 1.37  55 2.06
  52  0.465  0.543  0.590-  20 1.36  21 1.38  55 2.01
  53  0.601  0.507  0.524-   1 1.36  14 1.37  55 2.08
  54  0.531  0.406  0.442-  29 0.97  35 0.98  55 2.24
  55  0.501  0.481  0.519-  52 2.01  50 2.06  51 2.06  53 2.08  49 2.12  54 2.24
 
  LATTYP: Found a simple cubic cell.
 ALAT       =    20.0000000000
  
  Lattice vectors:
  
 A1 = (  20.0000000000,   0.0000000000,   0.0000000000)
 A2 = (   0.0000000000,  20.0000000000,   0.0000000000)
 A3 = (   0.0000000000,   0.0000000000,  20.0000000000)


Analysis of symmetry for initial positions (statically):
=====================================================================
 Subroutine PRICEL returns:
 Original cell was already a primitive cell.
 

 Routine SETGRP: Setting up the symmetry group for a 
 simple cubic supercell.


 Subroutine GETGRP returns: Found  1 space group operations
 (whereof  1 operations were pure point group operations)
 out of a pool of 48 trial point group operations.


The static configuration has the point symmetry C_1 .


Analysis of symmetry for dynamics (positions and initial velocities):
=====================================================================
 Subroutine PRICEL returns:
 Original cell was already a primitive cell.
 

 Routine SETGRP: Setting up the symmetry group for a 
 simple cubic supercell.


 Subroutine GETGRP returns: Found  1 space group operations
 (whereof  1 operations were pure point group operations)
 out of a pool of 48 trial point group operations.


The dynamic configuration has the point symmetry C_1 .


Analysis of constrained symmetry for selective dynamics:
=====================================================================
 Subroutine PRICEL returns:
 Original cell was already a primitive cell.
 

 Routine SETGRP: Setting up the symmetry group for a 
 simple cubic supercell.


 Subroutine GETGRP returns: Found  1 space group operations
 (whereof  1 operations were pure point group operations)
 out of a pool of 48 trial point group operations.


The constrained configuration has the point symmetry C_1 .


Analysis of magnetic symmetry:
=====================================================================
 Subroutine PRICEL returns:
 Original cell was already a primitive cell.
 

 Subroutine MAGSYM returns: Found  1 space group operations
 (whereof  1 operations were pure point group operations)
 out of a pool of  1 trial space group operations
 (whereof  1 operations were pure point group operations)
 and found also     1 'primitive' translations


The magnetic configuration has the point symmetry C_1 .
 
 
 KPOINTS: K-Points                                

Automatic generation of k-mesh.
Space group operators:
 irot       det(A)        alpha          n_x          n_y          n_z        tau_x        tau_y        tau_z
    1     1.000000     0.000000     1.000000     0.000000     0.000000     0.000000     0.000000     0.000000
 
 Subroutine IBZKPT returns following result:
 ===========================================
 
 Found      1 irreducible k-points:
 
 Following reciprocal coordinates:
            Coordinates               Weight
  0.000000  0.000000  0.000000      1.000000
 
 Following cartesian coordinates:
            Coordinates               Weight
  0.000000  0.000000  0.000000      1.000000
 


--------------------------------------------------------------------------------------------------------




 Dimension of arrays:
   k-points           NKPTS =      1   k-points in BZ     NKDIM =      1   number of bands    NBANDS=    128
   number of dos      NEDOS =    301   number of ions     NIONS =     55
   non local maximal  LDIM  =      6   non local SUM 2l+1 LMDIM =     18
   total plane-waves  NPLWV = ******
   max r-space proj   IRMAX =   8473   max aug-charges    IRDMAX= 268848
   dimension x,y,z NGX =   180 NGY =  180 NGZ =  180
   dimension x,y,z NGXF=   360 NGYF=  360 NGZF=  360
   support grid    NGXF=   720 NGYF=  720 NGZF=  720
   ions per type =               1  24  23   5   1   1
 NGX,Y,Z   is equivalent  to a cutoff of  14.96, 14.96, 14.96 a.u.
 NGXF,Y,Z  is equivalent  to a cutoff of  29.92, 29.92, 29.92 a.u.


 I would recommend the setting:
   dimension x,y,z NGX =   173 NGY =  173 NGZ =  173
 SYSTEM =  c2_oh2_ruthenium_mol                    
 POSCAR =  C C H N O Ru                            

 Startparameter for this run:
   NWRITE =      2    write-flag & timer
   PREC   = accura    normal or accurate (medium, high low for compatibility)
   ISTART =      0    job   : 0-new  1-cont  2-samecut
   ICHARG =      2    charge: 1-file 2-atom 10-const
   ISPIN  =      2    spin polarized calculation?
   LNONCOLLINEAR =      F non collinear calculations
   LSORBIT =      F    spin-orbit coupling
   INIWAV =      1    electr: 0-lowe 1-rand  2-diag
   LASPH  =      F    aspherical Exc in radial PAW
   METAGGA=      F    non-selfconsistent MetaGGA calc.

 Electronic Relaxation 1
   ENCUT  =  700.0 eV  51.45 Ry    7.17 a.u.  43.15 43.15 43.15*2*pi/ulx,y,z
   ENINI  =  700.0     initial cutoff
   ENAUG  =  946.8 eV  augmentation charge cutoff
   NELM   =     60;   NELMIN=  2; NELMDL= -5     # of ELM steps 
   EDIFF  = 0.1E-04   stopping-criterion for ELM
   LREAL  =      T    real-space projection
   NLSPLINE    = F    spline interpolate recip. space projectors
   LCOMPAT=      F    compatible to vasp.4.4
   GGA_COMPAT  = T    GGA compatible to vasp.4.4-vasp.4.6
   LMAXPAW     = -100 max onsite density
   LMAXMIX     =    2 max onsite mixed and CHGCAR
   VOSKOWN=      0    Vosko Wilk Nusair interpolation
   ROPT   =   -0.00025  -0.00025  -0.00025  -0.00025
   ROPT   =   -0.00025  -0.00025
 Ionic relaxation
   EDIFFG = -.1E-01   stopping-criterion for IOM
   NSW    =      0    number of steps for IOM
   NBLOCK =      1;   KBLOCK =      1    inner block; outer block 
   IBRION =     -1    ionic relax: 0-MD 1-quasi-New 2-CG
   NFREE  =      0    steps in history (QN), initial steepest desc. (CG)
   ISIF   =      2    stress and relaxation
   IWAVPR =     10    prediction:  0-non 1-charg 2-wave 3-comb
   ISYM   =      2    0-nonsym 1-usesym 2-fastsym
   LCORR  =      T    Harris-Foulkes like correction to forces

   POTIM  = 0.5000    time-step for ionic-motion
   TEIN   =    0.0    initial temperature
   TEBEG  =    0.0;   TEEND  =   0.0 temperature during run
   SMASS  =  -3.00    Nose mass-parameter (am)
   estimated Nose-frequenzy (Omega)   =  0.10E-29 period in steps =****** mass=  -0.914E-26a.u.
   SCALEE = 1.0000    scale energy and forces
   NPACO  =    256;   APACO  = 16.0  distance and # of slots for P.C.
   PSTRESS=    0.0 pullay stress

  Mass of Ions in am
   POMASS =  12.01 12.01  1.00 14.00 16.00101.07
  Ionic Valenz
   ZVAL   =   4.50  4.00  1.00  5.00  6.00 14.00
  Atomic Wigner-Seitz radii
   RWIGS  =  -1.00 -1.00 -1.00 -1.00 -1.00 -1.00
  virtual crystal weights 
   VCA    =   1.00  1.00  1.00  1.00  1.00  1.00
   NELECT =     166.0000    total number of electrons
   NUPDOWN=       0.0000    fix difference up-down

 DOS related values:
   EMIN   =  10.00;   EMAX   =-10.00  energy-range for DOS
   EFERMI =   0.00
   ISMEAR =     0;   SIGMA  =   0.01  broadening in eV -4-tet -1-fermi 0-gaus

 Electronic relaxation 2 (details)
   IALGO  =     38    algorithm
   LDIAG  =      T    sub-space diagonalisation (order eigenvalues)
   LSUBROT=      F    optimize rotation matrix (better conditioning)
   TURBO    =      0    0=normal 1=particle mesh
   IRESTART =      0    0=no restart 2=restart with 2 vectors
   NREBOOT  =      0    no. of reboots
   NMIN     =      0    reboot dimension
   EREF     =   0.00    reference energy to select bands
   IMIX   =      4    mixing-type and parameters
     AMIX     =   0.40;   BMIX     =  2.00
     AMIX_MAG =   1.60;   BMIX_MAG =  2.00
     AMIN     =   0.10
     WC   =   100.;   INIMIX=   1;  MIXPRE=   1;  MAXMIX= -45

 Intra band minimization:
   WEIMIN = 0.0000     energy-eigenvalue tresh-hold
   EBREAK =  0.20E-07  absolut break condition
   DEPER  =   0.30     relativ break condition  

   TIME   =   0.05     timestep for ELM

  volume/ion in A,a.u.               =     145.45       981.58
  Fermi-wavevector in a.u.,A,eV,Ry     =   0.449864  0.850119  2.753510  0.202377
  Thomas-Fermi vector in A             =   1.430192
 
 Write flags
   LWAVE  =      T    write WAVECAR
   LCHARG =      T    write CHGCAR
   LVTOT  =      F    write LOCPOT, total local potential
   LVHAR  =      F    write LOCPOT, Hartree potential only
   LELF   =      F    write electronic localiz. function (ELF)
   LORBIT =      0    0 simple, 1 ext, 2 COOP (PROOUT)


 Dipole corrections
   LMONO  =      F    monopole corrections only (constant potential shift)
   LDIPOL =      F    correct potential (dipole corrections)
   IDIPOL =      0    1-x, 2-y, 3-z, 4-all directions 
   EPSILON=  1.0000000 bulk dielectric constant

 Core level calculations are selected ICORELEVEL =  2
  CLNT =           1       CLN =     1
  CLL  =           0       CLZ = 0.500
 Exchange correlation treatment:
   GGA     =    --    GGA type
   LEXCH   =     8    internal setting for exchange type
   VOSKOWN=      0    Vosko Wilk Nusair interpolation
   LHFCALC =     F    Hartree Fock is set to
   LHFONE  =     F    Hartree Fock one center treatment
   AEXX    =    0.0000 exact exchange contribution

 Linear response parameters
   LEPSILON=     F    determine dielectric tensor
   LRPA    =     F    only Hartree local field effects (RPA)
   LNABLA  =     F    use nabla operator in PAW spheres
   LVEL    =     F    velocity operator in full k-point grid
   LINTERFAST=   F  fast interpolation
   KINTER  =     0    interpolate to denser k-point grid
   CSHIFT  =0.1000    complex shift for real part using Kramers Kronig
   OMEGAMAX=  -1.0    maximum frequency
   DEG_THRESHOLD= 0.2000000E-02 threshold for treating states as degnerate
   RTIME   =    0.100 relaxation time in fs

 Orbital magnetization related:
   ORBITALMAG=     F  switch on orbital magnetization
   LCHIMAG   =     F  perturbation theory with respect to B field
   DQ        =  0.001000  dq finite difference perturbation B field



--------------------------------------------------------------------------------------------------------


 Static calculation
 charge density and potential will be updated during run
 spin polarized calculation
 Variant of blocked Davidson
 Davidson routine will perform the subspace rotation
 perform sub-space diagonalisation
    after iterative eigenvector-optimisation
 modified Broyden-mixing scheme, WC =      100.0
 initial mixing is a Kerker type mixing with AMIX =  0.4000 and BMIX =      2.0000
 Hartree-type preconditioning will be used
 using additional bands           45
 real space projection scheme for non local part
 use partial core corrections
 calculate Harris-corrections to forces 
   (improved forces if not selfconsistent)
 use gradient corrections 
 use of overlap-Matrix (Vanderbilt PP)
 Gauss-broadening in eV      SIGMA  =   0.01


--------------------------------------------------------------------------------------------------------


  energy-cutoff  :      700.00
  volume of cell :     8000.00
      direct lattice vectors                 reciprocal lattice vectors
    20.000000000  0.000000000  0.000000000     0.050000000  0.000000000  0.000000000
     0.000000000 20.000000000  0.000000000     0.000000000  0.050000000  0.000000000
     0.000000000  0.000000000 20.000000000     0.000000000  0.000000000  0.050000000

  length of vectors
    20.000000000 20.000000000 20.000000000     0.050000000  0.050000000  0.050000000


 
 k-points in units of 2pi/SCALE and weight: K-Points                                
   0.00000000  0.00000000  0.00000000       1.000
 
 k-points in reciprocal lattice and weights: K-Points                                
   0.00000000  0.00000000  0.00000000       1.000
 
 position of ions in fractional coordinates (direct lattice) 
   0.63257913  0.55363620  0.48652424
   0.43793752  0.56561110  0.32757008
   0.45581208  0.52423376  0.38051465
   0.47372925  0.61530131  0.44986522
   0.45595175  0.65963312  0.39935201
   0.43785737  0.63472201  0.33675972
   0.52307882  0.32955005  0.67474498
   0.49710163  0.37190466  0.62618823
   0.60227374  0.41933300  0.60593616
   0.63096398  0.37761922  0.65422416
   0.73964927  0.52855915  0.53463181
   0.70082162  0.56612858  0.49044049
   0.29334713  0.47671938  0.56830116
   0.63952130  0.46927713  0.56732841
   0.70843899  0.47974495  0.57314689
   0.59134754  0.33224398  0.68903016
   0.36211554  0.48866484  0.56417415
   0.40790931  0.62211625  0.69058213
   0.47619960  0.62606623  0.67660612
   0.50295190  0.58590820  0.62668073
   0.39825425  0.53800137  0.60426081
   0.36904589  0.57756069  0.65398228
   0.37289802  0.40579857  0.48223443
   0.30486503  0.39173492  0.48443166
   0.26422003  0.42785518  0.52821594
   0.48989745  0.29510618  0.70074864
   0.61334240  0.29968355  0.72673159
   0.68424189  0.38076917  0.66478776
   0.54225374  0.36233861  0.46129841
   0.31579090  0.57306911  0.66420366
   0.44416348  0.37118871  0.61364770
   0.42392665  0.66833230  0.29622671
   0.45642762  0.71313270  0.40950260
   0.48809132  0.63358802  0.49907234
   0.56912778  0.41808713  0.41480476
   0.73767440  0.44963919  0.60776512
   0.72277620  0.60481012  0.45904817
   0.45570253  0.47012894  0.37468790
   0.40614333  0.37888556  0.44852541
   0.28443799  0.35306162  0.45202062
   0.79326502  0.53703787  0.53892527
   0.55589708  0.58769132  0.61440612
   0.42412006  0.54328620  0.27986105
   0.50894741  0.65984570  0.70400156
   0.26265982  0.50568523  0.60265428
   0.21072272  0.41813760  0.53105039
   0.60090654  0.58197914  0.45254259
   0.38544357  0.65296704  0.72941133
   0.47424490  0.54794204  0.44140236
   0.40180479  0.45306079  0.52108436
   0.53520702  0.41608490  0.59173240
   0.46544808  0.54254992  0.59041194
   0.60138410  0.50650621  0.52397638
   0.53073984  0.40562607  0.44215451
   0.50088568  0.48087016  0.51934246
 
 position of ions in cartesian coordinates  (Angst):
  12.65158254 11.07272405  9.73048485
   8.75875044 11.31222209  6.55140167
   9.11624161 10.48467523  7.61029296
   9.47458509 12.30602619  8.99730442
   9.11903505 13.19266234  7.98704025
   8.75714739 12.69444028  6.73519441
  10.46157638  6.59100110 13.49489953
   9.94203263  7.43809325 12.52376455
  12.04547477  8.38665999 12.11872314
  12.61927957  7.55238445 13.08448329
  14.79298537 10.57118301 10.69263621
  14.01643234 11.32257164  9.80880974
   5.86694270  9.53438759 11.36602327
  12.79042597  9.38554253 11.34656829
  14.16877978  9.59489901 11.46293786
  11.82695089  6.64487969 13.78060313
   7.24231077  9.77329687 11.28348299
   8.15818611 12.44232505 13.81164268
   9.52399198 12.52132464 13.53212240
  10.05903801 11.71816400 12.53361469
   7.96508499 10.76002740 12.08521614
   7.38091777 11.55121387 13.07964553
   7.45796037  8.11597149  9.64468853
   6.09730063  7.83469839  9.68863321
   5.28440067  8.55710369 10.56431882
   9.79794892  5.90212351 14.01497288
  12.26684793  5.99367109 14.53463185
  13.68483783  7.61538334 13.29575520
  10.84507475  7.24677213  9.22596819
   6.31581791 11.46138226 13.28407311
   8.88326966  7.42377422 12.27295397
   8.47853309 13.36664601  5.92453423
   9.12855243 14.26265408  8.19005201
   9.76182647 12.67176037  9.98144677
  11.38255564  8.36174255  8.29609511
  14.75348806  8.99278384 12.15530242
  14.45552391 12.09620238  9.18096343
   9.11405064  9.40257887  7.49375804
   8.12286663  7.57771114  8.97050829
   5.68875982  7.06123239  9.04041232
  15.86530045 10.74075733 10.77850539
  11.11794158 11.75382641 12.28812234
   8.48240128 10.86572407  5.59722093
  10.17894811 13.19691406 14.08003122
   5.25319634 10.11370460 12.05308551
   4.21445446  8.36275200 10.62100772
  12.01813087 11.63958272  9.05085175
   7.70887141 13.05934086 14.58822659
   9.48489793 10.95884088  8.82804729
   8.03609572  9.06121573 10.42168714
  10.70414049  8.32169803 11.83464804
   9.30896151 10.85099836 11.80823871
  12.02768196 10.13012430 10.47952760
  10.61479684  8.11252146  8.84309019
  10.01771355  9.61740316 10.38684921
 


--------------------------------------------------------------------------------------------------------


 k-point  1 :   0.0000 0.0000 0.0000  plane waves:  336427

 maximum and minimum number of plane-waves per node :    336427   336427

 maximum number of plane-waves:    336427
 maximum index in each direction: 
   IXMAX=   43   IYMAX=   43   IZMAX=   43
   IXMIN=  -43   IYMIN=  -43   IZMIN=  -43

 NGX is ok and might be reduce to 174
 NGY is ok and might be reduce to 174
 NGZ is ok and might be reduce to 174

 serial   3D FFT for wavefunctions
 parallel 3D FFT for charge:
    minimum data exchange during FFTs selected (reduces bandwidth)


 total amount of memory used by VASP on root node   877132. kBytes
========================================================================

   base      :      30000. kBytes
   nonlr-proj:      19361. kBytes
   fftplans  :     269516. kBytes
   grid      :     534988. kBytes
   one-center:       1710. kBytes
   wavefun   :      21557. kBytes
 
     INWAV:  cpu time    0.00: real time    0.00
 Broyden mixing: mesh for mixing (old mesh)
   NGX = 87   NGY = 87   NGZ = 87
  (NGX  =360   NGY  =360   NGZ  =360)
  gives a total of 658503 points

 initial charge density was supplied:
 charge density of overlapping atoms calculated
 number of electron     168.5000000 magnetization       0.0000000
 keeping initial charge density in first step


--------------------------------------------------------------------------------------------------------


 Maximum index for non-local projection operator         8166
 Maximum index for augmentation-charges         3214 (set IRDMAX)


--------------------------------------------------------------------------------------------------------


 First call to EWALD:  gamma=   0.089
 Maximum number of real-space cells 3x 3x 3
 Maximum number of reciprocal cells 3x 3x 3

 FEWALD executed in parallel
    FEWALD:  cpu time    0.00: real time    0.00


----------------------------------------- Iteration    1(   1)  ---------------------------------------


    POTLOK:  cpu time    4.71: real time    4.74
    SETDIJ:  cpu time    2.83: real time    2.83
     EDDAV:  cpu time   14.76: real time   15.74
       DOS:  cpu time    0.01: real time    0.01
    --------------------------------------------
      LOOP:  cpu time   22.32: real time   23.33

 eigenvalue-minimisations  :   768
 total energy-change (2. order) : 0.9101703E+03  (-0.5880495E+04)
 number of electron     168.5000000 magnetization       0.0000000
 augmentation part      168.5000000 magnetization       0.0000000

 Free energy of the ion-electron system (eV)
  ---------------------------------------------------
  alpha Z        PSCENC =        12.91687988
  Ewald energy   TEWEN  =     23314.69228165
  -Hartree energ DENC   =    -28916.72981750
  -exchange      EXHF   =         0.00000000
  -V(xc)+E(xc)   XCENC  =       400.96197065
  PAW double counting   =      5890.45591622    -5710.10246236
  entropy T*S    EENTRO =        -0.00069286
  eigenvalues    EBANDS =     -1675.42366895
  atomic energy  EATOM  =      7593.39991119
  ---------------------------------------------------
  free energy    TOTEN  =       910.17031793 eV

  energy without entropy =      910.17101079  energy(sigma->0) =      910.17066436


--------------------------------------------------------------------------------------------------------




----------------------------------------- Iteration    1(   2)  ---------------------------------------


     EDDAV:  cpu time   19.03: real time   20.26
       DOS:  cpu time    0.02: real time    0.02
    --------------------------------------------
      LOOP:  cpu time   19.05: real time   20.27

 eigenvalue-minimisations  :  1024
 total energy-change (2. order) :-0.9783344E+03  (-0.9718870E+03)
 number of electron     168.5000000 magnetization       0.0000000
 augmentation part      168.5000000 magnetization       0.0000000

 Free energy of the ion-electron system (eV)
  ---------------------------------------------------
  alpha Z        PSCENC =        12.91687988
  Ewald energy   TEWEN  =     23314.69228165
  -Hartree energ DENC   =    -28916.72981750
  -exchange      EXHF   =         0.00000000
  -V(xc)+E(xc)   XCENC  =       400.96197065
  PAW double counting   =      5890.45591622    -5710.10246236
  entropy T*S    EENTRO =        -0.00000000
  eigenvalues    EBANDS =     -2653.75871245
  atomic energy  EATOM  =      7593.39991119
  ---------------------------------------------------
  free energy    TOTEN  =       -68.16403271 eV

  energy without entropy =      -68.16403271  energy(sigma->0) =      -68.16403271


--------------------------------------------------------------------------------------------------------




----------------------------------------- Iteration    1(   3)  ---------------------------------------


     EDDAV:  cpu time   15.99: real time   16.92
       DOS:  cpu time    0.02: real time    0.02
    --------------------------------------------
      LOOP:  cpu time   16.01: real time   16.94

 eigenvalue-minimisations  :   832
 total energy-change (2. order) :-0.3244948E+03  (-0.3240664E+03)
 number of electron     168.5000000 magnetization       0.0000000
 augmentation part      168.5000000 magnetization       0.0000000

 Free energy of the ion-electron system (eV)
  ---------------------------------------------------
  alpha Z        PSCENC =        12.91687988
  Ewald energy   TEWEN  =     23314.69228165
  -Hartree energ DENC   =    -28916.72981750
  -exchange      EXHF   =         0.00000000
  -V(xc)+E(xc)   XCENC  =       400.96197065
  PAW double counting   =      5890.45591622    -5710.10246236
  entropy T*S    EENTRO =        -0.00000000
  eigenvalues    EBANDS =     -2978.25347714
  atomic energy  EATOM  =      7593.39991119
  ---------------------------------------------------
  free energy    TOTEN  =      -392.65879740 eV

  energy without entropy =     -392.65879740  energy(sigma->0) =     -392.65879740


--------------------------------------------------------------------------------------------------------




----------------------------------------- Iteration    1(   4)  ---------------------------------------


     EDDAV:  cpu time   12.68: real time   13.41
       DOS:  cpu time    0.01: real time    0.01
    --------------------------------------------
      LOOP:  cpu time   12.69: real time   13.42

 eigenvalue-minimisations  :   640
 total energy-change (2. order) :-0.1889166E+02  (-0.1886967E+02)
 number of electron     168.5000000 magnetization       0.0000000
 augmentation part      168.5000000 magnetization       0.0000000

 Free energy of the ion-electron system (eV)
  ---------------------------------------------------
  alpha Z        PSCENC =        12.91687988
  Ewald energy   TEWEN  =     23314.69228165
  -Hartree energ DENC   =    -28916.72981750
  -exchange      EXHF   =         0.00000000
  -V(xc)+E(xc)   XCENC  =       400.96197065
  PAW double counting   =      5890.45591622    -5710.10246236
  entropy T*S    EENTRO =        -0.00000000
  eigenvalues    EBANDS =     -2997.14514204
  atomic energy  EATOM  =      7593.39991119
  ---------------------------------------------------
  free energy    TOTEN  =      -411.55046230 eV

  energy without entropy =     -411.55046230  energy(sigma->0) =     -411.55046230


--------------------------------------------------------------------------------------------------------




----------------------------------------- Iteration    1(   5)  ---------------------------------------


     EDDAV:  cpu time   16.87: real time   18.03
       DOS:  cpu time    0.01: real time    0.01
    CHARGE:  cpu time    5.28: real time    5.30
    MIXING:  cpu time    0.06: real time    0.06
    --------------------------------------------
      LOOP:  cpu time   22.23: real time   23.40

 eigenvalue-minimisations  :   896
 total energy-change (2. order) :-0.2999305E+00  (-0.2998166E+00)
 number of electron     166.0000000 magnetization       0.0000000
 augmentation part        3.5388789 magnetization       0.0000010

 Broyden mixing:
  rms(total) = 0.57494E+01    rms(broyden)= 0.57487E+01
  rms(prec ) = 0.61341E+01
  weight for this iteration     100.00

 Free energy of the ion-electron system (eV)
  ---------------------------------------------------
  alpha Z        PSCENC =        12.91687988
  Ewald energy   TEWEN  =     23314.69228165
  -Hartree energ DENC   =    -28916.72981750
  -exchange      EXHF   =         0.00000000
  -V(xc)+E(xc)   XCENC  =       400.96197065
  PAW double counting   =      5890.45591622    -5710.10246236
  entropy T*S    EENTRO =        -0.00000000
  eigenvalues    EBANDS =     -2997.44507253
  atomic energy  EATOM  =      7593.39991119
  ---------------------------------------------------
  free energy    TOTEN  =      -411.85039280 eV

  energy without entropy =     -411.85039280  energy(sigma->0) =     -411.85039280


--------------------------------------------------------------------------------------------------------




----------------------------------------- Iteration    1(   6)  ---------------------------------------


    POTLOK:  cpu time    4.57: real time    4.61
    SETDIJ:  cpu time    2.84: real time    2.84
     EDDAV:  cpu time   10.79: real time   11.47
       DOS:  cpu time    0.01: real time    0.01
    CHARGE:  cpu time    5.17: real time    5.19
    MIXING:  cpu time    0.11: real time    0.11
    --------------------------------------------
      LOOP:  cpu time   23.49: real time   24.23

 eigenvalue-minimisations  :   512
 total energy-change (2. order) : 0.1844285E+02  (-0.3717719E+02)
 number of electron     166.0000000 magnetization       0.0000000
 augmentation part        6.4970075 magnetization       0.0000073

 Broyden mixing:
  rms(total) = 0.38798E+01    rms(broyden)= 0.38796E+01
  rms(prec ) = 0.40511E+01
  weight for this iteration     100.00

 eigenvalues of (default mixing * dielectric matrix)
  average eigenvalue GAMMA=   1.0459
  1.0459

 Free energy of the ion-electron system (eV)
  ---------------------------------------------------
  alpha Z        PSCENC =        12.91687988
  Ewald energy   TEWEN  =     23314.69228165
  -Hartree energ DENC   =    -28919.64798905
  -exchange      EXHF   =         0.00000000
  -V(xc)+E(xc)   XCENC  =       406.47656887
  PAW double counting   =     20891.44048896   -20724.10207055
  entropy T*S    EENTRO =        -0.00000000
  eigenvalues    EBANDS =     -2968.58361853
  atomic energy  EATOM  =      7593.39991119
  ---------------------------------------------------
  free energy    TOTEN  =      -393.40754757 eV

  energy without entropy =     -393.40754757  energy(sigma->0) =     -393.40754757


--------------------------------------------------------------------------------------------------------




----------------------------------------- Iteration    1(   7)  ---------------------------------------


    POTLOK:  cpu time    4.58: real time    4.61
    SETDIJ:  cpu time    2.78: real time    2.78
     EDDAV:  cpu time   15.03: real time   16.32
       DOS:  cpu time    0.04: real time    0.04
    CHARGE:  cpu time    5.32: real time    5.34
    MIXING:  cpu time    0.10: real time    0.11
    --------------------------------------------
      LOOP:  cpu time   27.85: real time   29.20

 eigenvalue-minimisations  :   768
 total energy-change (2. order) : 0.1066775E+02  (-0.2303403E+01)
 number of electron     166.0000000 magnetization       0.0000000
 augmentation part        5.5778026 magnetization       0.0000334

 Broyden mixing:
  rms(total) = 0.23666E+01    rms(broyden)= 0.23665E+01
  rms(prec ) = 0.24395E+01
  weight for this iteration     100.00

 eigenvalues of (default mixing * dielectric matrix)
  average eigenvalue GAMMA=   1.4263
  0.7549  2.0977

 Free energy of the ion-electron system (eV)
  ---------------------------------------------------
  alpha Z        PSCENC =        12.91687988
  Ewald energy   TEWEN  =     23314.69228165
  -Hartree energ DENC   =    -29049.24804181
  -exchange      EXHF   =         0.00000000
  -V(xc)+E(xc)   XCENC  =       411.84319325
  PAW double counting   =     36274.36089169   -36102.20085255
  entropy T*S    EENTRO =        -0.00000000
  eigenvalues    EBANDS =     -2838.50405993
  atomic energy  EATOM  =      7593.39991119
  ---------------------------------------------------
  free energy    TOTEN  =      -382.73979663 eV

  energy without entropy =     -382.73979663  energy(sigma->0) =     -382.73979663


--------------------------------------------------------------------------------------------------------




----------------------------------------- Iteration    1(   8)  ---------------------------------------


    POTLOK:  cpu time    4.60: real time    4.62
    SETDIJ:  cpu time    2.69: real time    2.86
     EDDAV:  cpu time   15.19: real time   16.46
       DOS:  cpu time    0.05: real time    0.05
    CHARGE:  cpu time    5.15: real time    5.16
    MIXING:  cpu time    0.10: real time    0.10
    --------------------------------------------
      LOOP:  cpu time   27.77: real time   29.25

 eigenvalue-minimisations  :   768
 total energy-change (2. order) : 0.4282455E+01  (-0.1731320E+01)
 number of electron     166.0000000 magnetization       0.0000000
 augmentation part        4.8551845 magnetization       0.0000227

 Broyden mixing:
  rms(total) = 0.96094E+00    rms(broyden)= 0.96090E+00
  rms(prec ) = 0.10445E+01
  weight for this iteration     100.00

 eigenvalues of (default mixing * dielectric matrix)
  average eigenvalue GAMMA=   1.4604
  2.7060  0.8376  0.8376

 Free energy of the ion-electron system (eV)
  ---------------------------------------------------
  alpha Z        PSCENC =        12.91687988
  Ewald energy   TEWEN  =     23314.69228165
  -Hartree energ DENC   =    -29201.00933868
  -exchange      EXHF   =         0.00000000
  -V(xc)+E(xc)   XCENC  =       419.73487274
  PAW double counting   =     69146.21315417   -68970.79729900
  entropy T*S    EENTRO =        -0.00000000
  eigenvalues    EBANDS =     -2693.60780311
  atomic energy  EATOM  =      7593.39991119
  ---------------------------------------------------
  free energy    TOTEN  =      -378.45734116 eV

  energy without entropy =     -378.45734116  energy(sigma->0) =     -378.45734116


--------------------------------------------------------------------------------------------------------




----------------------------------------- Iteration    1(   9)  ---------------------------------------


    POTLOK:  cpu time    4.59: real time    4.61
    SETDIJ:  cpu time    2.83: real time    2.84
     EDDAV:  cpu time   15.08: real time   16.31
       DOS:  cpu time    0.05: real time    0.05
    CHARGE:  cpu time    5.35: real time    5.37
    MIXING:  cpu time    0.08: real time    0.09
    --------------------------------------------
      LOOP:  cpu time   27.99: real time   29.26

 eigenvalue-minimisations  :   768
 total energy-change (2. order) : 0.1177220E+01  (-0.5493736E+00)
 number of electron     166.0000000 magnetization       0.0000000
 augmentation part        5.2404735 magnetization       0.0000023

 Broyden mixing:
  rms(total) = 0.36578E+00    rms(broyden)= 0.36574E+00
  rms(prec ) = 0.40315E+00
  weight for this iteration     100.00

 eigenvalues of (default mixing * dielectric matrix)
  average eigenvalue GAMMA=   1.3245
  2.5363  1.1677  0.7970  0.7970

 Free energy of the ion-electron system (eV)
  ---------------------------------------------------
  alpha Z        PSCENC =        12.91687988
  Ewald energy   TEWEN  =     23314.69228165
  -Hartree energ DENC   =    -29221.51983478
  -exchange      EXHF   =         0.00000000
  -V(xc)+E(xc)   XCENC  =       422.51957827
  PAW double counting   =     82798.85259369   -82625.30537973
  entropy T*S    EENTRO =        -0.00000000
  eigenvalues    EBANDS =     -2672.83615103
  atomic energy  EATOM  =      7593.39991119
  ---------------------------------------------------
  free energy    TOTEN  =      -377.28012086 eV

  energy without entropy =     -377.28012086  energy(sigma->0) =     -377.28012086


--------------------------------------------------------------------------------------------------------




----------------------------------------- Iteration    1(  10)  ---------------------------------------


    POTLOK:  cpu time    4.72: real time    4.76
    SETDIJ:  cpu time    2.77: real time    2.80
     EDDAV:  cpu time   15.11: real time   16.39
       DOS:  cpu time    0.05: real time    0.05
    CHARGE:  cpu time    5.17: real time    5.19
    MIXING:  cpu time    0.22: real time    0.22
    --------------------------------------------
      LOOP:  cpu time   28.05: real time   29.42

 eigenvalue-minimisations  :   768
 total energy-change (2. order) : 0.3980051E-01  (-0.3862146E-01)
 number of electron     166.0000000 magnetization       0.0000000
 augmentation part        5.3346694 magnetization      -0.0000035

 Broyden mixing:
  rms(total) = 0.25736E+00    rms(broyden)= 0.25736E+00
  rms(prec ) = 0.30081E+00
  weight for this iteration     100.00

 eigenvalues of (default mixing * dielectric matrix)
  average eigenvalue GAMMA=   1.4093
  2.5020  1.8581  0.8451  0.8451  0.9961

 Free energy of the ion-electron system (eV)
  ---------------------------------------------------
  alpha Z        PSCENC =        12.91687988
  Ewald energy   TEWEN  =     23314.69228165
  -Hartree energ DENC   =    -29208.24733723
  -exchange      EXHF   =         0.00000000
  -V(xc)+E(xc)   XCENC  =       422.47746876
  PAW double counting   =     81408.88893102   -81235.82706907
  entropy T*S    EENTRO =        -0.00000000
  eigenvalues    EBANDS =     -2685.54138657
  atomic energy  EATOM  =      7593.39991119
  ---------------------------------------------------
  free energy    TOTEN  =      -377.24032035 eV

  energy without entropy =     -377.24032035  energy(sigma->0) =     -377.24032035


--------------------------------------------------------------------------------------------------------




----------------------------------------- Iteration    1(  11)  ---------------------------------------


    POTLOK:  cpu time    4.58: real time    4.62
    SETDIJ:  cpu time    2.82: real time    2.83
     EDDAV:  cpu time   15.14: real time   16.45
       DOS:  cpu time    0.05: real time    0.05
    CHARGE:  cpu time    5.34: real time    5.34
    MIXING:  cpu time    0.08: real time    0.08
    --------------------------------------------
      LOOP:  cpu time   28.00: real time   29.36

 eigenvalue-minimisations  :   768
 total energy-change (2. order) : 0.1400516E+00  (-0.1680566E-01)
 number of electron     166.0000000 magnetization       0.0000000
 augmentation part        5.2824882 magnetization      -0.0000005

 Broyden mixing:
  rms(total) = 0.10341E+00    rms(broyden)= 0.10341E+00
  rms(prec ) = 0.14651E+00
  weight for this iteration     100.00

 eigenvalues of (default mixing * dielectric matrix)
  average eigenvalue GAMMA=   1.4958
  2.6540  2.6540  0.8531  0.8531  0.9802  0.9802

 Free energy of the ion-electron system (eV)
  ---------------------------------------------------
  alpha Z        PSCENC =        12.91687988
  Ewald energy   TEWEN  =     23314.69228165
  -Hartree energ DENC   =    -29206.30045172
  -exchange      EXHF   =         0.00000000
  -V(xc)+E(xc)   XCENC  =       423.20939589
  PAW double counting   =     81983.51174671   -81810.25171968
  entropy T*S    EENTRO =        -0.00000000
  eigenvalues    EBANDS =     -2688.27831267
  atomic energy  EATOM  =      7593.39991119
  ---------------------------------------------------
  free energy    TOTEN  =      -377.10026874 eV

  energy without entropy =     -377.10026874  energy(sigma->0) =     -377.10026874


--------------------------------------------------------------------------------------------------------




----------------------------------------- Iteration    1(  12)  ---------------------------------------


    POTLOK:  cpu time    4.66: real time    4.68
    SETDIJ:  cpu time    2.81: real time    2.81
     EDDAV:  cpu time   15.19: real time   16.45
       DOS:  cpu time    0.05: real time    0.05
    CHARGE:  cpu time    5.23: real time    5.23
    MIXING:  cpu time    0.12: real time    0.12
    --------------------------------------------
      LOOP:  cpu time   28.06: real time   29.34

 eigenvalue-minimisations  :   768
 total energy-change (2. order) : 0.6877422E-01  (-0.7558474E-02)
 number of electron     166.0000000 magnetization       0.0000000
 augmentation part        5.2516134 magnetization       0.0000011

 Broyden mixing:
  rms(total) = 0.64941E-01    rms(broyden)= 0.64938E-01
  rms(prec ) = 0.96288E-01
  weight for this iteration     100.00

 eigenvalues of (default mixing * dielectric matrix)
  average eigenvalue GAMMA=   1.4669
  2.8075  2.8075  0.8586  0.8586  1.0411  1.0411  0.8538

 Free energy of the ion-electron system (eV)
  ---------------------------------------------------
  alpha Z        PSCENC =        12.91687988
  Ewald energy   TEWEN  =     23314.69228165
  -Hartree energ DENC   =    -29200.24828719
  -exchange      EXHF   =         0.00000000
  -V(xc)+E(xc)   XCENC  =       423.76891414
  PAW double counting   =     81625.62030593   -81452.30901378
  entropy T*S    EENTRO =        -0.00000000
  eigenvalues    EBANDS =     -2694.87248636
  atomic energy  EATOM  =      7593.39991119
  ---------------------------------------------------
  free energy    TOTEN  =      -377.03149453 eV

  energy without entropy =     -377.03149453  energy(sigma->0) =     -377.03149453


--------------------------------------------------------------------------------------------------------




----------------------------------------- Iteration    1(  13)  ---------------------------------------


    POTLOK:  cpu time    4.59: real time    4.61
    SETDIJ:  cpu time    2.82: real time    2.82
     EDDAV:  cpu time   15.05: real time   16.34
       DOS:  cpu time    0.04: real time    0.04
    CHARGE:  cpu time    5.12: real time    5.12
    MIXING:  cpu time    0.25: real time    0.25
    --------------------------------------------
      LOOP:  cpu time   27.87: real time   29.19

 eigenvalue-minimisations  :   768
 total energy-change (2. order) : 0.1918430E-01  (-0.2081681E-02)
 number of electron     166.0000000 magnetization       0.0000000
 augmentation part        5.2598203 magnetization      -0.0000025

 Broyden mixing:
  rms(total) = 0.43180E-01    rms(broyden)= 0.43179E-01
  rms(prec ) = 0.66875E-01
  weight for this iteration     100.00

 eigenvalues of (default mixing * dielectric matrix)
  average eigenvalue GAMMA=   1.5514
  3.0765  3.0765  1.7153  1.1573  1.0225  0.8579  0.8579  0.6476

 Free energy of the ion-electron system (eV)
  ---------------------------------------------------
  alpha Z        PSCENC =        12.91687988
  Ewald energy   TEWEN  =     23314.69228165
  -Hartree energ DENC   =    -29192.22261170
  -exchange      EXHF   =         0.00000000
  -V(xc)+E(xc)   XCENC  =       424.02951943
  PAW double counting   =     81166.74055814   -80993.53210398
  entropy T*S    EENTRO =        -0.00000000
  eigenvalues    EBANDS =     -2703.03674485
  atomic energy  EATOM  =      7593.39991119
  ---------------------------------------------------
  free energy    TOTEN  =      -377.01231022 eV

  energy without entropy =     -377.01231022  energy(sigma->0) =     -377.01231022


--------------------------------------------------------------------------------------------------------




----------------------------------------- Iteration    1(  14)  ---------------------------------------


    POTLOK:  cpu time    4.73: real time    4.77
    SETDIJ:  cpu time    2.80: real time    2.80
     EDDAV:  cpu time   15.05: real time   16.34
       DOS:  cpu time    0.05: real time    0.05
    CHARGE:  cpu time    5.40: real time    5.40
    MIXING:  cpu time    0.09: real time    0.09
    --------------------------------------------
      LOOP:  cpu time   28.13: real time   29.46

 eigenvalue-minimisations  :   768
 total energy-change (2. order) : 0.9499483E-02  (-0.1194551E-02)
 number of electron     166.0000000 magnetization       0.0000000
 augmentation part        5.2592743 magnetization       0.0000030

 Broyden mixing:
  rms(total) = 0.28094E-01    rms(broyden)= 0.28093E-01
  rms(prec ) = 0.44059E-01
  weight for this iteration     100.00

 eigenvalues of (default mixing * dielectric matrix)
  average eigenvalue GAMMA=   1.6432
  4.5281  2.5386  2.0208  1.3542  0.8492  0.8492  1.0101  1.0101  0.6288

 Free energy of the ion-electron system (eV)
  ---------------------------------------------------
  alpha Z        PSCENC =        12.91687988
  Ewald energy   TEWEN  =     23314.69228165
  -Hartree energ DENC   =    -29183.74060453
  -exchange      EXHF   =         0.00000000
  -V(xc)+E(xc)   XCENC  =       424.26771334
  PAW double counting   =     81008.61063219   -80835.44301251
  entropy T*S    EENTRO =        -0.00000000
  eigenvalues    EBANDS =     -2711.70661196
  atomic energy  EATOM  =      7593.39991119
  ---------------------------------------------------
  free energy    TOTEN  =      -377.00281074 eV

  energy without entropy =     -377.00281074  energy(sigma->0) =     -377.00281074


--------------------------------------------------------------------------------------------------------




----------------------------------------- Iteration    1(  15)  ---------------------------------------


    POTLOK:  cpu time    4.60: real time    4.62
    SETDIJ:  cpu time    2.82: real time    2.83
     EDDAV:  cpu time   15.06: real time   16.35
       DOS:  cpu time    0.05: real time    0.05
    CHARGE:  cpu time    5.24: real time    5.25
    MIXING:  cpu time    0.14: real time    0.14
    --------------------------------------------
      LOOP:  cpu time   27.92: real time   29.23

 eigenvalue-minimisations  :   768
 total energy-change (2. order) :-0.3742121E-03  (-0.5068845E-03)
 number of electron     166.0000000 magnetization       0.0000000
 augmentation part        5.2554468 magnetization      -0.0000011

 Broyden mixing:
  rms(total) = 0.22395E-01    rms(broyden)= 0.22394E-01
  rms(prec ) = 0.31579E-01
  weight for this iteration     100.00

 eigenvalues of (default mixing * dielectric matrix)
  average eigenvalue GAMMA=   1.7542
  5.2416  2.5286  2.5286  1.6863  1.2412  0.8597  0.8597  1.0357  0.9337  0.6271

 Free energy of the ion-electron system (eV)
  ---------------------------------------------------
  alpha Z        PSCENC =        12.91687988
  Ewald energy   TEWEN  =     23314.69228165
  -Hartree energ DENC   =    -29175.41606156
  -exchange      EXHF   =         0.00000000
  -V(xc)+E(xc)   XCENC  =       424.40772204
  PAW double counting   =     81076.83490149   -80903.65455729
  entropy T*S    EENTRO =        -0.00000000
  eigenvalues    EBANDS =     -2720.18426236
  atomic energy  EATOM  =      7593.39991119
  ---------------------------------------------------
  free energy    TOTEN  =      -377.00318495 eV

  energy without entropy =     -377.00318495  energy(sigma->0) =     -377.00318495


--------------------------------------------------------------------------------------------------------




----------------------------------------- Iteration    1(  16)  ---------------------------------------


    POTLOK:  cpu time    4.78: real time    4.81
    SETDIJ:  cpu time    2.81: real time    2.81
     EDDAV:  cpu time   15.05: real time   16.35
       DOS:  cpu time    0.04: real time    0.04
    CHARGE:  cpu time    5.22: real time    5.22
    MIXING:  cpu time    0.21: real time    0.22
    --------------------------------------------
      LOOP:  cpu time   28.12: real time   29.46

 eigenvalue-minimisations  :   768
 total energy-change (2. order) :-0.1096621E-01  (-0.3747756E-03)
 number of electron     166.0000000 magnetization       0.0000000
 augmentation part        5.2606740 magnetization       0.0000034

 Broyden mixing:
  rms(total) = 0.10220E-01    rms(broyden)= 0.10219E-01
  rms(prec ) = 0.15273E-01
  weight for this iteration     100.00

 eigenvalues of (default mixing * dielectric matrix)
  average eigenvalue GAMMA=   1.7888
  6.0145  2.7320  2.7320  1.7225  1.3992  0.8585  0.8585  0.9914  0.9914  0.7510
  0.6251

 Free energy of the ion-electron system (eV)
  ---------------------------------------------------
  alpha Z        PSCENC =        12.91687988
  Ewald energy   TEWEN  =     23314.69228165
  -Hartree energ DENC   =    -29164.05751083
  -exchange      EXHF   =         0.00000000
  -V(xc)+E(xc)   XCENC  =       424.35724694
  PAW double counting   =     81142.02106907   -80968.83119507
  entropy T*S    EENTRO =        -0.00000000
  eigenvalues    EBANDS =     -2731.51283401
  atomic energy  EATOM  =      7593.39991119
  ---------------------------------------------------
  free energy    TOTEN  =      -377.01415117 eV

  energy without entropy =     -377.01415117  energy(sigma->0) =     -377.01415117


--------------------------------------------------------------------------------------------------------




----------------------------------------- Iteration    1(  17)  ---------------------------------------


    POTLOK:  cpu time    4.62: real time    4.65
    SETDIJ:  cpu time    2.83: real time    2.83
     EDDAV:  cpu time   15.06: real time   16.35
       DOS:  cpu time    0.05: real time    0.05
    CHARGE:  cpu time    5.09: real time    5.10
    MIXING:  cpu time    0.27: real time    0.27
    --------------------------------------------
      LOOP:  cpu time   27.92: real time   29.25

 eigenvalue-minimisations  :   768
 total energy-change (2. order) :-0.5025132E-02  (-0.8118605E-04)
 number of electron     166.0000000 magnetization       0.0000000
 augmentation part        5.2605954 magnetization      -0.0000013

 Broyden mixing:
  rms(total) = 0.81434E-02    rms(broyden)= 0.81432E-02
  rms(prec ) = 0.10975E-01
  weight for this iteration     100.00

 eigenvalues of (default mixing * dielectric matrix)
  average eigenvalue GAMMA=   1.7790
  6.4775  2.8192  2.8192  1.6688  1.6688  0.8599  0.8599  1.0036  1.0036  0.9233
  0.6311  0.6129

 Free energy of the ion-electron system (eV)
  ---------------------------------------------------
  alpha Z        PSCENC =        12.91687988
  Ewald energy   TEWEN  =     23314.69228165
  -Hartree energ DENC   =    -29159.18873057
  -exchange      EXHF   =         0.00000000
  -V(xc)+E(xc)   XCENC  =       424.32694587
  PAW double counting   =     81159.22480097   -80986.02458141
  entropy T*S    EENTRO =        -0.00000000
  eigenvalues    EBANDS =     -2736.36668388
  atomic energy  EATOM  =      7593.39991119
  ---------------------------------------------------
  free energy    TOTEN  =      -377.01917630 eV

  energy without entropy =     -377.01917630  energy(sigma->0) =     -377.01917630


--------------------------------------------------------------------------------------------------------




----------------------------------------- Iteration    1(  18)  ---------------------------------------


    POTLOK:  cpu time    4.61: real time    4.63
    SETDIJ:  cpu time    2.84: real time    2.87
     EDDAV:  cpu time   15.17: real time   16.48
       DOS:  cpu time    0.05: real time    0.05
    CHARGE:  cpu time    5.13: real time    5.14
    MIXING:  cpu time    0.17: real time    0.17
    --------------------------------------------
      LOOP:  cpu time   27.98: real time   29.34

 eigenvalue-minimisations  :   768
 total energy-change (2. order) :-0.3988916E-02  (-0.2578409E-04)
 number of electron     166.0000000 magnetization       0.0000000
 augmentation part        5.2602587 magnetization       0.0000017

 Broyden mixing:
  rms(total) = 0.66455E-02    rms(broyden)= 0.66454E-02
  rms(prec ) = 0.84288E-02
  weight for this iteration     100.00

 eigenvalues of (default mixing * dielectric matrix)
[...]
 12.585   0.000  21.199   0.000  -0.010   0.000   0.008   0.000  -0.005   0.000  -0.018   0.000   0.015   0.000  -0.008   0.000
 21.199   0.000  35.705   0.000  -0.017   0.000   0.014   0.000  -0.008   0.000  -0.030   0.000   0.025   0.000  -0.014   0.000
 -0.010   0.000  -0.017   0.000  -3.551   0.000   0.001   0.000  -0.001   0.000  -6.381   0.000   0.002   0.000  -0.001   0.000
  0.008   0.000   0.014   0.000   0.001   0.000  -3.550   0.000   0.000   0.000   0.002   0.000  -6.381   0.000   0.000   0.000
 -0.005   0.000  -0.008   0.000  -0.001   0.000   0.000   0.000  -3.551   0.000  -0.001   0.000   0.000   0.000  -6.382   0.000
 -0.018   0.000  -0.030   0.000  -6.381   0.000   0.002   0.000  -0.001   0.000 -11.448   0.000   0.003   0.000  -0.002   0.000
  0.015   0.000   0.025   0.000   0.002   0.000  -6.381   0.000   0.000   0.000   0.003   0.000 -11.447   0.000   0.001   0.000
 -0.008   0.000  -0.014   0.000  -0.001   0.000   0.000   0.000  -6.382   0.000  -0.002   0.000   0.001   0.000 -11.450   0.000
 pseudopotential strength for first ion, spin component:           2
 12.585   0.000  21.199   0.000  -0.010   0.000   0.008   0.000  -0.005   0.000  -0.018   0.000   0.015   0.000  -0.008   0.000
 21.199   0.000  35.705   0.000  -0.017   0.000   0.014   0.000  -0.008   0.000  -0.030   0.000   0.025   0.000  -0.014   0.000
 -0.010   0.000  -0.017   0.000  -3.551   0.000   0.001   0.000  -0.001   0.000  -6.381   0.000   0.002   0.000  -0.001   0.000
  0.008   0.000   0.014   0.000   0.001   0.000  -3.550   0.000   0.000   0.000   0.002   0.000  -6.381   0.000   0.000   0.000
 -0.005   0.000  -0.008   0.000  -0.001   0.000   0.000   0.000  -3.551   0.000  -0.001   0.000   0.000   0.000  -6.382   0.000
 -0.018   0.000  -0.030   0.000  -6.381   0.000   0.002   0.000  -0.001   0.000 -11.448   0.000   0.003   0.000  -0.002   0.000
  0.015   0.000   0.025   0.000   0.002   0.000  -6.381   0.000   0.000   0.000   0.003   0.000 -11.447   0.000   0.001   0.000
 -0.008   0.000  -0.014   0.000  -0.001   0.000   0.000   0.000  -6.382   0.000  -0.002   0.000   0.001   0.000 -11.450   0.000
 total augmentation occupancy for first ion, spin component:           1
  1.580  -0.414  -0.658   0.617  -0.024   0.262  -0.243   0.026
 -0.414   0.571   0.352  -0.321   0.055  -0.113   0.102  -0.026
 -0.658   0.352   2.184  -1.225   0.687  -0.365   0.390  -0.275
  0.617  -0.321  -1.225   1.858  -0.098   0.390  -0.232   0.095
 -0.024   0.055   0.687  -0.098   3.119  -0.275   0.095  -0.602
  0.262  -0.113  -0.365   0.390  -0.275   0.186  -0.047   0.079
 -0.243   0.102   0.390  -0.232   0.095  -0.047   0.147  -0.056
  0.026  -0.026  -0.275   0.095  -0.602   0.079  -0.056   0.194
 total augmentation occupancy for first ion, spin component:           2
  0.000  -0.000  -0.000   0.000  -0.000   0.000  -0.000   0.000
 -0.000   0.000   0.000  -0.000   0.000  -0.000   0.000  -0.000
 -0.000   0.000   0.000  -0.000   0.000  -0.000   0.000  -0.000
  0.000  -0.000  -0.000   0.000  -0.000   0.000  -0.000   0.000
 -0.000   0.000   0.000  -0.000   0.000  -0.000   0.000  -0.000
  0.000  -0.000  -0.000   0.000  -0.000   0.000  -0.000   0.000
 -0.000   0.000   0.000  -0.000   0.000  -0.000   0.000  -0.000
  0.000  -0.000  -0.000   0.000  -0.000   0.000  -0.000   0.000


------------------------ aborting loop because EDIFF is reached ----------------------------------------


    CHARGE:  cpu time    5.08: real time    5.08
    FORLOC:  cpu time    0.69: real time    0.69
    FORNL :  cpu time   19.45: real time   19.54
    STRESS:  cpu time   61.32: real time   61.39
    FORCOR:  cpu time    4.22: real time    4.24
    FORHAR:  cpu time    0.99: real time    1.00
    MIXING:  cpu time    0.20: real time    0.23
    OFIELD:  cpu time    0.00: real time    0.00

  FORCE on cell =-STRESS in cart. coord.  units (eV):
  Direction    XX          YY          ZZ          XY          YZ          ZX
  --------------------------------------------------------------------------------------
  Alpha Z    12.91688    12.91688    12.91688
  Ewald   11223.34851  5587.88975  6503.43958   409.18709 -1599.39192   894.39640
  Hartree 12560.56902  7809.21496  8780.96476   114.68046 -1453.41306   715.58873
  E(xc)    -688.86834  -691.45382  -692.12117     1.44694    -0.19494     0.66310
  Local  -26153.12236-15802.24321-17710.58842  -499.86912  3049.36441 -1610.56442
  n-local   -28.40473   -28.19488   -31.74550     3.67455    -1.54280    -1.25816
  augment    82.52235    84.36269    83.36519     1.23427    -0.50235     0.47824
  Kinetic  2975.24874  3013.76947  3039.80326   -30.57108     6.77947     0.33260
  Fock        0.00000     0.00000     0.00000     0.00000     0.00000     0.00000
  -------------------------------------------------------------------------------------
  Total     -15.78993   -13.73815   -13.96543    -0.21688     1.09882    -0.36352
  in kB      -3.16228    -2.75137    -2.79689    -0.04344     0.22006    -0.07280
  external pressure =       -2.90 kB  Pullay stress =        0.00 kB


 VOLUME and BASIS-vectors are now :
 -----------------------------------------------------------------------------
  energy-cutoff  :      700.00
  volume of cell :     8000.00
      direct lattice vectors                 reciprocal lattice vectors
    20.000000000  0.000000000  0.000000000     0.050000000  0.000000000  0.000000000
     0.000000000 20.000000000  0.000000000     0.000000000  0.050000000  0.000000000
     0.000000000  0.000000000 20.000000000     0.000000000  0.000000000  0.050000000

  length of vectors
    20.000000000 20.000000000 20.000000000     0.050000000  0.050000000  0.050000000


 FORCES acting on ions
    electron-ion (+dipol)            ewald-force                    non-local-force                 convergence-correction
 -----------------------------------------------------------------------------------------------
   -.204E+03 -.240E+03 0.209E+03   0.207E+03 0.246E+03 -.214E+03   -.246E+01 -.605E+01 0.513E+01   -.316E-04 -.410E-04 0.186E-04
   0.886E+02 -.912E+01 0.333E+03   -.893E+02 0.934E+01 -.335E+03   0.690E+00 -.231E+00 0.187E+01   -.563E-05 -.504E-05 -.400E-04
   0.692E+02 0.806E+02 0.318E+03   -.713E+02 -.828E+02 -.325E+03   0.216E+01 0.217E+01 0.636E+01   -.257E-05 -.265E-04 0.148E-04
   0.563E+01 -.318E+03 0.300E+02   -.609E+01 0.325E+03 -.296E+02   0.496E+00 -.687E+01 -.460E+00   -.456E-05 -.208E-04 0.136E-04
   0.372E+02 -.326E+03 0.105E+03   -.376E+02 0.328E+03 -.106E+03   0.441E+00 -.180E+01 0.653E+00   0.441E-07 0.222E-04 -.160E-04
   0.810E+02 -.208E+03 0.264E+03   -.816E+02 0.209E+03 -.265E+03   0.587E+00 -.115E+01 0.147E+01   -.560E-05 0.375E-04 -.540E-04
   0.749E+02 0.268E+03 -.219E+03   -.755E+02 -.269E+03 0.220E+03   0.623E+00 0.154E+01 -.145E+01   0.151E-05 -.398E-04 0.256E-04
   0.151E+03 0.256E+03 -.165E+03   -.155E+03 -.260E+03 0.168E+03   0.432E+01 0.475E+01 -.379E+01   -.978E-05 0.196E-04 -.169E-04
   -.226E+03 0.123E+03 -.138E+03   0.231E+03 -.125E+03 0.141E+03   -.460E+01 0.191E+01 -.335E+01   -.248E-04 0.289E-06 -.158E-04
   -.257E+03 0.144E+03 -.182E+03   0.259E+03 -.145E+03 0.183E+03   -.104E+01 0.153E+01 -.189E+01   0.172E-04 -.189E-04 0.277E-06
   -.341E+03 -.691E+02 -.219E+01   0.344E+03 0.692E+02 0.280E+01   -.293E+01 -.130E+00 -.548E+00   0.406E-04 0.151E-04 -.203E-05
   -.269E+03 -.194E+03 0.136E+03   0.274E+03 0.196E+03 -.137E+03   -.619E+01 -.205E+01 0.460E+00   0.255E-04 0.301E-04 -.196E-04
   0.323E+03 -.348E+02 -.117E+03   -.325E+03 0.345E+02 0.117E+03   0.243E+01 0.223E+00 -.304E+00   -.253E-05 -.249E-05 0.242E-04
   -.266E+03 0.664E+02 -.948E+02   0.270E+03 -.693E+02 0.987E+02   -.448E+01 0.290E+01 -.379E+01   -.545E-04 0.857E-05 -.341E-04
   -.316E+03 0.629E+02 -.114E+03   0.319E+03 -.631E+02 0.115E+03   -.245E+01 0.313E+00 -.891E+00   0.163E-04 -.140E-04 0.965E-05
   -.122E+03 0.232E+03 -.238E+03   0.122E+03 -.234E+03 0.240E+03   -.505E+00 0.156E+01 -.172E+01   0.245E-04 -.523E-04 0.349E-04
   0.272E+03 -.290E+02 -.104E+03   -.277E+03 0.309E+02 0.107E+03   0.518E+01 -.184E+01 -.278E+01   0.200E-04 0.152E-04 0.673E-05
   0.127E+03 -.218E+03 -.261E+03   -.128E+03 0.219E+03 0.263E+03   0.753E+00 -.131E+01 -.161E+01   -.325E-04 0.355E-04 0.379E-04
   -.738E+02 -.256E+03 -.246E+03   0.741E+02 0.257E+03 0.248E+03   -.219E+00 -.148E+01 -.159E+01   -.210E-04 0.174E-04 0.168E-04
   -.157E+03 -.237E+03 -.198E+03   0.160E+03 0.241E+03 0.202E+03   -.369E+01 -.482E+01 -.432E+01   -.172E-04 -.353E-04 -.224E-04
   0.233E+03 -.958E+02 -.158E+03   -.239E+03 0.967E+02 0.161E+03   0.581E+01 -.946E+00 -.274E+01   0.134E-04 -.118E-04 -.198E-04
   0.265E+03 -.124E+03 -.200E+03   -.267E+03 0.125E+03 0.202E+03   0.130E+01 -.126E+01 -.182E+01   -.181E-04 0.629E-05 0.214E-05
   0.148E+03 0.265E+03 0.192E+03   -.151E+03 -.270E+03 -.196E+03   0.350E+01 0.499E+01 0.412E+01   0.965E-05 -.588E-05 -.131E-04
   0.241E+03 0.223E+03 0.143E+03   -.243E+03 -.225E+03 -.144E+03   0.165E+01 0.121E+01 0.823E+00   -.265E-04 -.375E-04 -.235E-04
   0.337E+03 0.957E+02 0.309E+01   -.339E+03 -.962E+02 -.324E+01   0.195E+01 0.540E+00 0.139E+00   -.334E-04 -.323E-04 0.160E-04
   0.452E+02 0.805E+02 -.636E+02   -.489E+02 -.843E+02 0.665E+02   0.364E+01 0.382E+01 -.290E+01   -.174E-05 -.178E-04 0.121E-04
   -.417E+02 0.695E+02 -.756E+02   0.442E+02 -.731E+02 0.798E+02   -.242E+01 0.362E+01 -.419E+01   0.682E-05 -.198E-04 0.144E-04
   -.993E+02 0.279E+02 -.486E+02   0.105E+03 -.277E+02 0.499E+02   -.581E+01 -.241E+00 -.126E+01   0.608E-05 -.101E-04 0.433E-05
   -.405E+02 0.150E+03 0.159E+02   0.423E+02 -.157E+03 -.126E+02   -.178E+01 0.757E+01 -.335E+01   -.653E-05 0.134E-04 0.820E-05
   0.101E+03 -.225E+02 -.518E+02   -.107E+03 0.221E+02 0.530E+02   0.582E+01 0.410E+00 -.121E+01   -.985E-05 0.530E-05 0.838E-05
   0.801E+02 0.679E+02 -.317E+02   -.860E+02 -.681E+02 0.304E+02   0.589E+01 0.135E+00 0.134E+01   -.382E-06 0.349E-05 -.317E-05
   0.267E+02 -.664E+02 0.814E+02   -.283E+02 0.701E+02 -.859E+02   0.155E+01 -.372E+01 0.448E+01   -.473E-05 0.193E-04 -.261E-04
   0.609E+01 -.110E+03 0.892E+01   -.606E+01 0.116E+03 -.784E+01   -.275E-01 -.588E+01 -.107E+01   -.161E-05 0.208E-04 -.792E-05
   -.136E+02 -.102E+03 -.344E+02   0.151E+02 0.104E+03 0.398E+02   -.152E+01 -.210E+01 -.539E+01   -.312E-05 -.857E-05 0.212E-05
   -.101E+03 0.263E+02 0.116E+03   0.108E+03 -.240E+02 -.121E+03   -.650E+01 -.227E+01 0.485E+01   -.939E-05 0.828E-05 0.131E-04
   -.917E+02 0.387E+02 -.538E+02   0.950E+02 -.420E+02 0.576E+02   -.333E+01 0.328E+01 -.380E+01   0.665E-05 -.351E-05 0.116E-05
   -.674E+02 -.720E+02 0.550E+02   0.698E+02 0.764E+02 -.585E+02   -.256E+01 -.432E+01 0.348E+01   0.111E-04 0.443E-05 -.187E-05
   0.177E+02 0.711E+02 0.885E+02   -.178E+02 -.771E+02 -.893E+02   0.543E-01 0.597E+01 0.728E+00   -.107E-06 -.626E-05 0.498E-05
   0.427E+01 0.905E+02 0.773E+02   -.698E+00 -.935E+02 -.811E+02   -.358E+01 0.301E+01 0.375E+01   -.809E-07 -.760E-06 -.185E-05
   0.603E+02 0.771E+02 0.571E+02   -.626E+02 -.814E+02 -.607E+02   0.229E+01 0.426E+01 0.356E+01   -.125E-04 -.148E-04 -.913E-05
   -.106E+03 -.196E+02 -.473E+01   0.111E+03 0.206E+02 0.517E+01   -.597E+01 -.931E+00 -.493E+00   0.221E-04 0.710E-05 -.171E-05
   -.833E+02 -.641E+02 -.387E+02   0.892E+02 0.644E+02 0.375E+02   -.585E+01 -.259E+00 0.127E+01   -.645E-05 -.980E-05 -.460E-05
   0.287E+02 0.212E+02 0.104E+03   -.302E+02 -.236E+02 -.110E+03   0.153E+01 0.242E+01 0.526E+01   -.457E-05 -.151E-05 -.243E-04
   -.452E+02 -.784E+02 -.700E+02   0.488E+02 0.821E+02 0.731E+02   -.357E+01 -.374E+01 -.305E+01   -.266E-05 0.149E-04 0.147E-04
   0.946E+02 -.331E+02 -.543E+02   -.981E+02 0.362E+02 0.580E+02   0.345E+01 -.311E+01 -.372E+01   -.744E-05 -.991E-06 0.825E-05
   0.105E+03 0.253E+02 -.239E+01   -.111E+03 -.264E+02 0.269E+01   0.591E+01 0.109E+01 -.305E+00   -.194E-04 -.130E-04 0.377E-05
   -.188E+02 -.794E+02 0.782E+02   0.158E+02 0.822E+02 -.814E+02   0.364E+01 -.332E+01 0.397E+01   0.623E-06 -.721E-05 0.362E-05
   0.433E+02 -.658E+02 -.805E+02   -.458E+02 0.693E+02 0.848E+02   0.248E+01 -.342E+01 -.430E+01   -.109E-04 0.168E-04 0.196E-04
   0.336E+02 -.139E+03 0.223E+03   -.290E+02 0.126E+03 -.208E+03   -.452E+01 0.123E+02 -.149E+02   0.118E-04 -.667E-04 0.760E-04
   0.232E+03 0.164E+03 0.618E+02   -.213E+03 -.161E+03 -.632E+02   -.189E+02 -.306E+01 0.143E+01   0.719E-04 0.328E-04 0.831E-05
   -.403E+02 0.235E+03 -.161E+03   0.312E+02 -.223E+03 0.147E+03   0.908E+01 -.117E+02 0.134E+02   -.174E-04 0.612E-04 -.632E-04
   0.402E+02 -.195E+03 -.198E+03   -.329E+02 0.186E+03 0.186E+03   -.735E+01 0.919E+01 0.122E+02   0.163E-04 -.623E-04 -.551E-04
   -.248E+03 -.856E+02 0.593E+02   0.223E+03 0.793E+02 -.586E+02   0.250E+02 0.653E+01 -.106E+01   -.116E-03 -.495E-04 -.145E-04
   -.121E+03 0.406E+03 0.422E+03   0.815E+02 -.389E+03 -.425E+03   0.398E+02 -.170E+02 0.257E+01   -.420E-04 0.110E-03 0.105E-03
   -.658E+02 0.135E+03 0.226E+03   0.639E+02 -.132E+03 -.222E+03   0.231E+01 -.292E+01 -.403E+01   0.848E-04 -.410E-04 -.130E-04
 -----------------------------------------------------------------------------------------------
   -.421E+02 0.107E+02 0.476E+01   -.327E-12 0.426E-12 -.853E-13   0.421E+02 -.107E+02 -.476E+01   -.160E-03 -.152E-03 0.257E-04
 
 
 POSITION                                       TOTAL-FORCE (eV/Angst)
 -----------------------------------------------------------------------------------
     12.65158     11.07272      9.73048         0.575502      0.263963     -0.133839
      8.75875     11.31222      6.55140        -0.007606     -0.006348     -0.002449
      9.11624     10.48468      7.61029        -0.010597     -0.044325     -0.015795
      9.47459     12.30603      8.99730         0.036720      0.042783      0.008255
      9.11904     13.19266      7.98704         0.015339      0.028246      0.005322
      8.75715     12.69444      6.73519        -0.006995     -0.000455     -0.007242
     10.46158      6.59100     13.49490         0.063801     -0.012857      0.027168
      9.94203      7.43809     12.52376        -0.004220      0.068675     -0.073021
     12.04547      8.38666     12.11872        -0.107550     -0.020547     -0.002950
     12.61928      7.55238     13.08448         0.079863      0.069774     -0.043437
     14.79299     10.57118     10.69264        -0.015793     -0.067976      0.063320
     14.01643     11.32257      9.80881        -1.035859     -0.199533     -0.042429
      5.86694      9.53439     11.36602         0.013320      0.007143      0.001482
     12.79043      9.38554     11.34657        -0.004604     -0.028576      0.035622
     14.16878      9.59490     11.46294         0.042367      0.125987     -0.110361
     11.82695      6.64488     13.78060        -0.030372     -0.028432      0.021178
      7.24231      9.77330     11.28348         0.030985      0.007553     -0.006457
      8.15819     12.44233     13.81164         0.017812     -0.006358     -0.013898
      9.52399     12.52132     13.53212         0.011749      0.011740      0.008803
     10.05904     11.71816     12.53361        -0.030674     -0.026054     -0.027476
      7.96508     10.76003     12.08522         0.020654     -0.010449     -0.013285
      7.38092     11.55121     13.07965         0.001374     -0.002700     -0.007571
      7.45796      8.11597      9.64469         0.087774      0.003398     -0.018724
      6.09730      7.83470      9.68863        -0.023735      0.007542      0.011907
      5.28440      8.55710     10.56432         0.027302     -0.011114     -0.016502
      9.79795      5.90212     14.01497        -0.000968     -0.007932      0.006788
     12.26685      5.99367     14.53463         0.006143      0.000177      0.002193
     13.68484      7.61538     13.29576         0.006848     -0.021978      0.024716
     10.84507      7.24677      9.22597        -0.010407     -0.045464     -0.022195
      6.31582     11.46138     13.28407         0.000928      0.004701     -0.000773
      8.88327      7.42377     12.27295         0.000513     -0.003997      0.001026
      8.47853     13.36665      5.92453        -0.004701      0.006478     -0.001103
      9.12855     14.26265      8.19005         0.000635      0.004516      0.000703
      9.76183     12.67176      9.98145        -0.020666      0.019625      0.025256
     11.38256      8.36174      8.29610        -0.049690     -0.050279     -0.053758
     14.75349      8.99278     12.15530         0.011708      0.000327      0.000873
     14.45552     12.09620      9.18096        -0.142462      0.026140     -0.060268
      9.11405      9.40258      7.49376        -0.013157     -0.003097     -0.011740
      8.12287      7.57771      8.97051        -0.009013     -0.012781     -0.007150
      5.68876      7.06123      9.04041         0.005254     -0.006543     -0.001938
     15.86530     10.74076     10.77851        -0.028784      0.050497     -0.051182
     11.11794     11.75383     12.28812         0.002251      0.018041      0.025598
      8.48240     10.86572      5.59722        -0.006891     -0.001491      0.002804
     10.17895     13.19691     14.08003         0.000213      0.003596      0.001676
      5.25320     10.11370     12.05309         0.001915     -0.002017     -0.001377
      4.21445      8.36275     10.62101        -0.004506     -0.002597     -0.001461
     12.01813     11.63958      9.05085         0.639786     -0.603789      0.734778
      7.70887     13.05934     14.58823        -0.000452      0.006797      0.006400
      9.48490     10.95884      8.82805         0.017853      0.002692     -0.029203
      8.03610      9.06122     10.42169        -0.096123     -0.023485      0.036367
     10.70414      8.32170     11.83465        -0.055947     -0.010101      0.017216
      9.30896     10.85100     11.80824        -0.087324      0.095228      0.110564
     12.02768     10.13012     10.47953        -0.257105      0.311713     -0.322909
     10.61480      8.11252      8.84309         0.013447      0.052742      0.047488
     10.01771      9.61740     10.38685         0.334146      0.021202     -0.127013
 -----------------------------------------------------------------------------------
    total drift:                                0.006473     -0.003291      0.003138


--------------------------------------------------------------------------------------------------------



  FREE ENERGIE OF THE ION-ELECTRON SYSTEM (eV)
  ---------------------------------------------------
  free  energy   TOTEN  =      -377.03336703 eV

  energy  without entropy=     -377.03336703  energy(sigma->0) =     -377.03336703
 


--------------------------------------------------------------------------------------------------------


    POTLOK:  cpu time    7.48: real time    7.62


--------------------------------------------------------------------------------------------------------


 writing wavefunctions
     LOOP+:  cpu time 1036.36: real time 1077.21
    4ORBIT:  cpu time    0.00: real time    0.00

 total amount of memory used by VASP on root node   877132. kBytes
========================================================================

   base      :      30000. kBytes
   nonlr-proj:      19361. kBytes
   fftplans  :     269516. kBytes
   grid      :     534988. kBytes
   one-center:       1710. kBytes
   wavefun   :      21557. kBytes
 
  
  
 General timing and accounting informations for this job:
 ========================================================
  
                  Total CPU time used (sec):     1298.252
                            User time (sec):     1143.215
                          System time (sec):      155.036
                         Elapsed time (sec):     1343.095
  
                   Maximum memory used (kb):     1490532.
                   Average memory used (kb):           0.
  
                          Minor page faults:      7039389
                          Major page faults:            1
                 Voluntary context switches:       280794
