<?xml version="1.0" encoding="ISO-8859-1"?>
<modeling>
 <generator>
  <i name="program" type="string">vasp </i>
  <i name="version" type="string">5.3.5  </i>
  <i name="subversion" type="string">31Mar14 (build Apr 08 2014 12:00:03) complex                          parallel </i>
  <i name="platform" type="string">NSC-NSCPATCH-BUILD02 </i>
  <i name="date" type="string">2017 03 15 </i>
  <i name="time" type="string">18:46:22 </i>
 </generator>
 <incar>
  <i type="string" name="SYSTEM"> c2_oh2_ruthenium_mol</i>
  <i type="int" name="ISTART">     0</i>
  <i type="string" name="PREC">accurate</i>
  <i type="int" name="IALGO">    38</i>
  <i type="logical" name="ADDGRID"> T  </i>
  <i type="int" name="ISPIN">     2</i>
  <i name="BMIX">      2.00000000</i>
  <i type="int" name="ICHARG">     2</i>
  <i name="EDIFF">      0.00001000</i>
  <i name="EDIFFG">     -0.01000000</i>
  <i name="ENCUT">    700.00000000</i>
  <i name="POTIM">      0.50000000</i>
  <i name="NUPDOWN">      0.00000000</i>
  <i name="NELECT">    166.00000000</i>
  <i type="string" name="LREAL"> Auto</i>
  <i name="TIME">      0.05000000</i>
  <i type="int" name="ISMEAR">     0</i>
  <i name="SIGMA">      0.01000000</i>
  <i type="int" name="ICORELEVEL">     2</i>
  <i type="int" name="CLNT">     1</i>
  <i type="int" name="CLN">     1</i>
  <i type="int" name="INCAR     ">     0</i>
  <i name="CLZ">      0.50000000</i>
 </incar>
 <kpoints>
  <generation param="Monkhorst-Pack">
   <v type="int" name="divisions">       1        1        1 </v>
   <v name="usershift">      0.00000000       0.00000000       0.00000000 </v>
   <v name="genvec1">      1.00000000       0.00000000       0.00000000 </v>
   <v name="genvec2">      0.00000000       1.00000000       0.00000000 </v>
   <v name="genvec3">      0.00000000       0.00000000       1.00000000 </v>
   <v name="shift">      0.00000000       0.00000000       0.00000000 </v>
  </generation>
  <varray name="kpointlist" >
   <v>       0.00000000       0.00000000       0.00000000 </v>
  </varray>
  <varray name="weights" >
   <v>       1.00000000 </v>
  </varray>
 </kpoints>
 <parameters>
  <separator name="general" >
   <i type="string" name="SYSTEM">c2_oh2_ruthenium_mol</i>
   <i type="logical" name="LCOMPAT"> F  </i>
  </separator>
  <separator name="electronic" >
   <i type="string" name="PREC">accura</i>
   <i name="ENMAX">    700.00000000</i>
   <i name="ENAUG">    946.76800000</i>
   <i name="EDIFF">      0.00001000</i>
   <i type="int" name="IALGO">    38</i>
   <i type="int" name="IWAVPR">    10</i>
   <i type="int" name="NBANDS">   128</i>
   <i name="NELECT">    166.00000000</i>
   <i type="int" name="TURBO">     0</i>
   <i type="int" name="IRESTART">     0</i>
   <i type="int" name="NREBOOT">     0</i>
   <i type="int" name="NMIN">     0</i>
   <i name="EREF">      0.00000000</i>
   <separator name="electronic smearing" >
    <i type="int" name="ISMEAR">     0</i>
    <i name="SIGMA">      0.01000000</i>
    <i name="KSPACING">      0.50000000</i>
    <i type="logical" name="KGAMMA"> T  </i>
   </separator>
   <separator name="electronic projectors" >
    <i type="logical" name="LREAL"> T  </i>
    <v name="ROPT">     -0.00025000     -0.00025000     -0.00025000     -0.00025000     -0.00025000     -0.00025000</v>
    <i type="int" name="LMAXPAW">  -100</i>
    <i type="int" name="LMAXMIX">     2</i>
    <i type="logical" name="NLSPLINE"> F  </i>
   </separator>
   <separator name="electronic startup" >
    <i type="int" name="ISTART">     0</i>
    <i type="int" name="ICHARG">     2</i>
    <i type="int" name="INIWAV">     1</i>
   </separator>
   <separator name="electronic spin" >
    <i type="int" name="ISPIN">     2</i>
    <i type="logical" name="LNONCOLLINEAR"> F  </i>
    <v name="MAGMOM">      0.00000000      0.00000000      0.00000000      0.00000000      0.00000000      0.00000000      0.00000000      0.00000000      0.00000000      0.00000000      0.00000000      0.00000000      0.00000000      0.00000000      0.00000000      0.00000000      0.00000000      0.00000000      0.00000000      0.00000000
      0.00000000      0.00000000      0.00000000      0.00000000      0.00000000      0.00000000      0.00000000      0.00000000      0.00000000      0.00000000      0.00000000      0.00000000      0.00000000      0.00000000      0.00000000      0.00000000      0.00000000      0.00000000      0.00000000      0.00000000
      0.00000000      0.00000000      0.00000000      0.00000000      0.00000000      0.00000000      0.00000000      0.00000000      0.00000000      0.00000000      0.00000000      0.00000000      0.00000000      0.00000000      0.00000000</v>
    <i name="NUPDOWN">      0.00000000</i>
    <i type="logical" name="LSORBIT"> F  </i>
    <v name="SAXIS">      0.00000000      0.00000000      1.00000000</v>
    <i type="logical" name="LSPIRAL"> F  </i>
    <v name="QSPIRAL">      0.00000000      0.00000000      0.00000000</v>
    <i type="logical" name="LZEROZ"> F  </i>
   </separator>
   <separator name="electronic exchange-correlation" >
    <i type="logical" name="LASPH"> F  </i>
    <i type="logical" name="LMETAGGA"> F  </i>
   </separator>
   <separator name="electronic convergence" >
    <i type="int" name="NELM">    60</i>
    <i type="int" name="NELMDL">    -5</i>
    <i type="int" name="NELMIN">     2</i>
    <i name="ENINI">    700.00000000</i>
    <separator name="electronic convergence detail" >
     <i type="logical" name="LDIAG"> T  </i>
     <i type="logical" name="LSUBROT"> F  </i>
     <i name="WEIMIN">      0.00000000</i>
     <i name="EBREAK">      0.00000002</i>
     <i name="DEPER">      0.30000000</i>
     <i type="int" name="NRMM">     4</i>
     <i name="TIME">      0.05000000</i>
    </separator>
   </separator>
   <separator name="electronic mixer" >
    <i name="AMIX">      0.40000000</i>
    <i name="BMIX">      2.00000000</i>
    <i name="AMIN">      0.10000000</i>
    <i name="AMIX_MAG">      1.60000000</i>
    <i name="BMIX_MAG">      2.00000000</i>
    <separator name="electronic mixer details" >
     <i type="int" name="IMIX">     4</i>
     <i type="int" name="MAXMIX">   -45</i>
     <i name="WC">    100.00000000</i>
     <i type="int" name="INIMIX">     1</i>
     <i type="int" name="MIXPRE">     1</i>
     <i type="int" name="MREMOVE">     5</i>
    </separator>
   </separator>
   <separator name="electronic dipolcorrection" >
    <i type="logical" name="LDIPOL"> F  </i>
    <i type="logical" name="LMONO"> F  </i>
    <i type="int" name="IDIPOL">     0</i>
    <i name="EPSILON">      1.00000000</i>
    <v name="DIPOL">   -100.00000000   -100.00000000   -100.00000000</v>
    <i name="EFIELD">      0.00000000</i>
   </separator>
  </separator>
  <separator name="grids" >
   <i type="int" name="NGX">   180</i>
   <i type="int" name="NGY">   180</i>
   <i type="int" name="NGZ">   180</i>
   <i type="int" name="NGXF">   360</i>
   <i type="int" name="NGYF">   360</i>
   <i type="int" name="NGZF">   360</i>
   <i type="logical" name="ADDGRID"> T  </i>
  </separator>
  <separator name="ionic" >
   <i type="int" name="NSW">     0</i>
   <i type="int" name="IBRION">    -1</i>
   <i type="int" name="ISIF">     2</i>
   <i name="PSTRESS">      0.00000000</i>
   <i name="EDIFFG">     -0.01000000</i>
   <i type="int" name="NFREE">     0</i>
   <i name="POTIM">      0.50000000</i>
   <i name="SMASS">     -3.00000000</i>
   <i name="SCALEE">      1.00000000</i>
  </separator>
  <separator name="ionic md" >
   <i name="TEBEG">      0.00010000</i>
   <i name="TEEND">      0.00010000</i>
   <i type="int" name="NBLOCK">     1</i>
   <i type="int" name="KBLOCK">     1</i>
   <i type="int" name="NPACO">   256</i>
   <i name="APACO">     16.00000000</i>
  </separator>
  <separator name="symmetry" >
   <i type="int" name="ISYM">     2</i>
   <i name="SYMPREC">      0.00001000</i>
  </separator>
  <separator name="dos" >
   <i type="logical" name="LORBIT"> F  </i>
   <v name="RWIGS">     -1.00000000     -1.00000000     -1.00000000     -1.00000000     -1.00000000     -1.00000000</v>
   <i type="int" name="NEDOS">   301</i>
   <i name="EMIN">     10.00000000</i>
   <i name="EMAX">    -10.00000000</i>
   <i name="EFERMI">      0.00000000</i>
  </separator>
  <separator name="writing" >
   <i type="int" name="NWRITE">     2</i>
   <i type="logical" name="LWAVE"> T  </i>
   <i type="logical" name="LCHARG"> T  </i>
   <i type="logical" name="LPARD"> F  </i>
   <i type="logical" name="LVTOT"> F  </i>
   <i type="logical" name="LVHAR"> F  </i>
   <i type="logical" name="LELF"> F  </i>
   <i type="logical" name="LOPTICS"> F  </i>
   <v name="STM">      0.00000000      0.00000000      0.00000000      0.00000000      0.00000000      0.00000000      0.00000000</v>
  </separator>
  <separator name="performance" >
   <i type="int" name="NPAR">    64</i>
   <i type="int" name="NSIM">     4</i>
   <i type="int" name="NBLK">    -1</i>
   <i type="logical" name="LPLANE"> T  </i>
   <i type="logical" name="LSCALAPACK"> T  </i>
   <i type="logical" name="LSCAAWARE"> F  </i>
   <i type="logical" name="LSCALU"> F  </i>
   <i type="logical" name="LASYNC"> F  </i>
   <i type="logical" name="LORBITALREAL"> F  </i>
  </separator>
  <separator name="miscellaneous" >
   <i type="int" name="IDIOT">     3</i>
   <i type="logical" name="LMUSIC"> F  </i>
   <v name="POMASS">     12.01100000     12.01100000      1.00000000     14.00100000     16.00000000    101.07000000</v>
   <v name="DARWINR">      0.00000000      0.00000000      0.00000000      0.00000000      0.00000000      0.00000000</v>
   <v name="DARWINV">      1.00000000      1.00000000      1.00000000      1.00000000      1.00000000      1.00000000</v>
   <i type="logical" name="LCORR"> T  </i>
  </separator>
  <i type="logical" name="GGA_COMPAT"> T  </i>
  <i type="logical" name="LBERRY"> F  </i>
  <i type="int" name="ICORELEVEL">     2</i>
  <i type="int" name="CLNT">     1</i>
  <i type="int" name="CLN">     1</i>
  <i type="int" name="CLL">     0</i>
  <i name="CLZ">      0.50000000</i>
  <i type="logical" name="LDAU"> F  </i>
  <i type="int" name="I_CONSTRAINED_M">     0</i>
  <separator name="electronic exchange-correlation" >
   <i type="string" name="GGA">--</i>
   <i type="int" name="VOSKOWN">     0</i>
   <i type="logical" name="LHFCALC"> F  </i>
   <i type="string" name="PRECFOCK"></i>
   <i type="logical" name="LSYMGRAD"> F  </i>
   <i type="logical" name="LHFONE"> F  </i>
   <i type="logical" name="LRHFCALC"> F  </i>
   <i type="logical" name="LTHOMAS"> F  </i>
   <i type="logical" name="LMODELHF"> F  </i>
   <i name="ENCUT4O">     -1.00000000</i>
   <i type="int" name="EXXOEP">     0</i>
   <i type="int" name="FOURORBIT">     0</i>
   <i name="AEXX">      0.00000000</i>
   <i name="HFALPHA">      0.00000000</i>
   <i name="MCALPHA">      0.00000000</i>
   <i name="ALDAX">      1.00000000</i>
   <i name="AGGAX">      1.00000000</i>
   <i name="ALDAC">      1.00000000</i>
   <i name="AGGAC">      1.00000000</i>
   <i type="int" name="NKREDX">     1</i>
   <i type="int" name="NKREDY">     1</i>
   <i type="int" name="NKREDZ">     1</i>
   <i type="logical" name="SHIFTRED"> F  </i>
   <i type="logical" name="ODDONLY"> F  </i>
   <i type="logical" name="EVENONLY"> F  </i>
   <i type="int" name="LMAXFOCK">     0</i>
   <i type="int" name="NMAXFOCKAE">     0</i>
   <i type="logical" name="LFOCKAEDFT"> F  </i>
   <i name="HFSCREEN">      0.00000000</i>
   <i name="HFSCREENC">      0.00000000</i>
   <i type="int" name="NBANDSGWLOW">     0</i>
  </separator>
  <separator name="vdW DFT" >
   <i type="logical" name="LUSE_VDW"> F  </i>
   <i name="Zab_VDW">     -0.84910000</i>
   <i name="PARAM1">      0.12340000</i>
   <i name="PARAM2">      1.00000000</i>
   <i name="PARAM3">      0.00000000</i>
  </separator>
  <separator name="model GW" >
   <i type="int" name="MODEL_GW">     0</i>
   <i name="MODEL_EPS0">     87.27272727</i>
   <i name="MODEL_ALPHA">      1.00000000</i>
  </separator>
  <separator name="linear response parameters" >
   <i type="logical" name="LEPSILON"> F  </i>
   <i type="logical" name="LRPA"> F  </i>
   <i type="logical" name="LNABLA"> F  </i>
   <i type="logical" name="LVEL"> F  </i>
   <i type="int" name="KINTER">     0</i>
   <i name="CSHIFT">      0.10000000</i>
   <i name="OMEGAMAX">     -1.00000000</i>
   <i name="DEG_THRESHOLD">      0.00200000</i>
  </separator>
  <separator name="orbital magnetization" >
   <i type="logical" name="NUCIND"> F  </i>
   <v name="MAGPOS">      0.00000000      0.00000000      0.00000000</v>
   <i type="logical" name="LNICSALL"> T  </i>
   <i type="logical" name="ORBITALMAG"> F  </i>
   <i type="logical" name="LMAGBLOCH"> F  </i>
   <i type="logical" name="LCHIMAG"> F  </i>
   <i type="logical" name="LGAUGE"> T  </i>
   <i type="int" name="MAGATOM">     0</i>
   <v name="MAGDIPOL">      0.00000000      0.00000000      0.00000000</v>
   <v name="AVECCONST">      0.00000000      0.00000000      0.00000000</v>
  </separator>
  <separator name="response functions" >
   <i type="logical" name="LADDER"> F  </i>
   <i type="logical" name="LFXC"> F  </i>
   <i type="logical" name="LHARTREE"> T  </i>
   <i type="int" name="IBSE">     0</i>
   <i type="logical" name="LTCTE"> F  </i>
   <i type="logical" name="LTETE"> F  </i>
   <i type="logical" name="LTRIPLET"> F  </i>
   <i type="logical" name="LFXCEPS"> F  </i>
   <i type="logical" name="LFXHEG"> F  </i>
   <i type="logical" name="L2ORDER"> F  </i>
   <i type="logical" name="LUSEW"> F  </i>
   <i name="ENCUTGW">     -2.00000000</i>
   <i name="ENCUTGWSOFT">     -2.00000000</i>
   <i name="ENCUTLF">     -1.00000000</i>
   <i type="int" name="LMAXMP2">    -1</i>
   <i name="SCISSOR">      0.00000000</i>
   <i type="int" name="NOMEGA">     0</i>
   <i type="int" name="NOMEGAR">     0</i>
   <i type="int" name="NBANDSGW">    -1</i>
   <i type="int" name="NBANDSO">    -1</i>
   <i type="int" name="NBANDSV">    -1</i>
   <i type="int" name="NELM">     1</i>
   <i type="int" name="DIM">     3</i>
   <i type="int" name="ANTIRES">     0</i>
   <i name="OMEGAMAX">    -30.00000000</i>
   <i name="OMEGAMIN">    -30.00000000</i>
   <i name="OMEGATL">   -200.00000000</i>
   <i type="int" name="OMEGAGRID">     0</i>
   <i name="CSHIFT">     -0.10000000</i>
   <i type="logical" name="SELFENERGY"> F  </i>
   <i type="logical" name="LSPECTRAL"> F  </i>
   <i type="logical" name="ODDONLYGW"> F  </i>
   <i type="logical" name="EVENONLYGW"> F  </i>
   <i type="int" name="NKREDLFX">     1</i>
   <i type="int" name="NKREDLFY">     1</i>
   <i type="int" name="NKREDLFZ">     1</i>
   <i type="int" name="MAXMEM">  1800</i>
   <i type="int" name="TELESCOPE">     0</i>
   <i type="int" name="TAUPAR">     1</i>
  </separator>
  <separator name="External order field" >
   <i name="OFIELD_KAPPA">      0.00000000</i>
   <v name="OFIELD_K">      0.00000000      0.00000000      0.00000000</v>
   <i name="OFIELD_Q6_NEAR">      0.00000000</i>
   <i name="OFIELD_Q6_FAR">      0.00000000</i>
   <i name="OFIELD_A">      0.00000000</i>
  </separator>
 </parameters>
 <atominfo>
  <atoms>      55 </atoms>
  <types>       6 </types>
  <array name="atoms" >
   <dimension dim="1">ion</dimension>
   <field type="string">element</field>
   <field type="int">atomtype</field>
   <set>
    <rc><c>C </c><c>   1</c></rc>
    <rc><c>C </c><c>   2</c></rc>
    <rc><c>C </c><c>   2</c></rc>
    <rc><c>C </c><c>   2</c></rc>
    <rc><c>C </c><c>   2</c></rc>
    <rc><c>C </c><c>   2</c></rc>
    <rc><c>C </c><c>   2</c></rc>
    <rc><c>C </c><c>   2</c></rc>
    <rc><c>C </c><c>   2</c></rc>
    <rc><c>C </c><c>   2</c></rc>
    <rc><c>C </c><c>   2</c></rc>
    <rc><c>C </c><c>   2</c></rc>
    <rc><c>C </c><c>   2</c></rc>
    <rc><c>C </c><c>   2</c></rc>
    <rc><c>C </c><c>   2</c></rc>
    <rc><c>C </c><c>   2</c></rc>
    <rc><c>C </c><c>   2</c></rc>
    <rc><c>C </c><c>   2</c></rc>
    <rc><c>C </c><c>   2</c></rc>
    <rc><c>C </c><c>   2</c></rc>
    <rc><c>C </c><c>   2</c></rc>
    <rc><c>C </c><c>   2</c></rc>
    <rc><c>C </c><c>   2</c></rc>
    <rc><c>C </c><c>   2</c></rc>
    <rc><c>C </c><c>   2</c></rc>
    <rc><c>H </c><c>   3</c></rc>
    <rc><c>H </c><c>   3</c></rc>
    <rc><c>H </c><c>   3</c></rc>
    <rc><c>H </c><c>   3</c></rc>
    <rc><c>H </c><c>   3</c></rc>
    <rc><c>H </c><c>   3</c></rc>
    <rc><c>H </c><c>   3</c></rc>
    <rc><c>H </c><c>   3</c></rc>
    <rc><c>H </c><c>   3</c></rc>
    <rc><c>H </c><c>   3</c></rc>
    <rc><c>H </c><c>   3</c></rc>
    <rc><c>H </c><c>   3</c></rc>
    <rc><c>H </c><c>   3</c></rc>
    <rc><c>H </c><c>   3</c></rc>
    <rc><c>H </c><c>   3</c></rc>
    <rc><c>H </c><c>   3</c></rc>
    <rc><c>H </c><c>   3</c></rc>
    <rc><c>H </c><c>   3</c></rc>
    <rc><c>H </c><c>   3</c></rc>
    <rc><c>H </c><c>   3</c></rc>
    <rc><c>H </c><c>   3</c></rc>
    <rc><c>H </c><c>   3</c></rc>
    <rc><c>H </c><c>   3</c></rc>
    <rc><c>N </c><c>   4</c></rc>
    <rc><c>N </c><c>   4</c></rc>
    <rc><c>N </c><c>   4</c></rc>
    <rc><c>N </c><c>   4</c></rc>
    <rc><c>N </c><c>   4</c></rc>
    <rc><c>O </c><c>   5</c></rc>
    <rc><c>Ru</c><c>   6</c></rc>
   </set>
  </array>
  <array name="atomtypes" >
   <dimension dim="1">type</dimension>
   <field type="int">atomspertype</field>
   <field type="string">element</field>
   <field>mass</field>
   <field>valence</field>
   <field type="string">pseudopotential</field>
   <set>
    <rc><c>   1</c><c>C </c><c>     12.01100000</c><c>      4.50000000</c><c>  PAW_PBE C_h 06Feb2004                 </c></rc>
    <rc><c>  24</c><c>C </c><c>     12.01100000</c><c>      4.00000000</c><c>  PAW_PBE C_h 06Feb2004                 </c></rc>
    <rc><c>  23</c><c>H </c><c>      1.00000000</c><c>      1.00000000</c><c>  PAW_PBE H 15Jun2001                   </c></rc>
    <rc><c>   5</c><c>N </c><c>     14.00100000</c><c>      5.00000000</c><c>  PAW_PBE N_h 06Feb2004                 </c></rc>
    <rc><c>   1</c><c>O </c><c>     16.00000000</c><c>      6.00000000</c><c>  PAW_PBE O_h 06Feb2004                 </c></rc>
    <rc><c>   1</c><c>Ru</c><c>    101.07000000</c><c>     14.00000000</c><c>  PAW_PBE Ru_pv 28Jan2005               </c></rc>
   </set>
  </array>
 </atominfo>
 <structure name="initialpos" >
  <crystal>
   <varray name="basis" >
    <v>      20.00000000       0.00000000       0.00000000 </v>
    <v>       0.00000000      20.00000000       0.00000000 </v>
    <v>       0.00000000       0.00000000      20.00000000 </v>
   </varray>
   <i name="volume">   8000.00000000 </i>
   <varray name="rec_basis" >
    <v>       0.05000000       0.00000000       0.00000000 </v>
    <v>       0.00000000       0.05000000       0.00000000 </v>
    <v>       0.00000000       0.00000000       0.05000000 </v>
   </varray>
  </crystal>
  <varray name="positions" >
   <v>       0.63257913       0.55363620       0.48652424 </v>
   <v>       0.43793752       0.56561110       0.32757008 </v>
   <v>       0.45581208       0.52423376       0.38051465 </v>
   <v>       0.47372925       0.61530131       0.44986522 </v>
   <v>       0.45595175       0.65963312       0.39935201 </v>
   <v>       0.43785737       0.63472201       0.33675972 </v>
   <v>       0.52307882       0.32955005       0.67474498 </v>
   <v>       0.49710163       0.37190466       0.62618823 </v>
   <v>       0.60227374       0.41933300       0.60593616 </v>
   <v>       0.63096398       0.37761922       0.65422416 </v>
   <v>       0.73964927       0.52855915       0.53463181 </v>
   <v>       0.70082162       0.56612858       0.49044049 </v>
   <v>       0.29334713       0.47671938       0.56830116 </v>
   <v>       0.63952130       0.46927713       0.56732841 </v>
   <v>       0.70843899       0.47974495       0.57314689 </v>
   <v>       0.59134754       0.33224398       0.68903016 </v>
   <v>       0.36211554       0.48866484       0.56417415 </v>
   <v>       0.40790931       0.62211625       0.69058213 </v>
   <v>       0.47619960       0.62606623       0.67660612 </v>
   <v>       0.50295190       0.58590820       0.62668073 </v>
   <v>       0.39825425       0.53800137       0.60426081 </v>
   <v>       0.36904589       0.57756069       0.65398228 </v>
   <v>       0.37289802       0.40579857       0.48223443 </v>
   <v>       0.30486503       0.39173492       0.48443166 </v>
   <v>       0.26422003       0.42785518       0.52821594 </v>
   <v>       0.48989745       0.29510618       0.70074864 </v>
   <v>       0.61334240       0.29968355       0.72673159 </v>
   <v>       0.68424189       0.38076917       0.66478776 </v>
   <v>       0.54225374       0.36233861       0.46129841 </v>
   <v>       0.31579090       0.57306911       0.66420366 </v>
   <v>       0.44416348       0.37118871       0.61364770 </v>
   <v>       0.42392665       0.66833230       0.29622671 </v>
   <v>       0.45642762       0.71313270       0.40950260 </v>
   <v>       0.48809132       0.63358802       0.49907234 </v>
   <v>       0.56912778       0.41808713       0.41480476 </v>
   <v>       0.73767440       0.44963919       0.60776512 </v>
   <v>       0.72277620       0.60481012       0.45904817 </v>
   <v>       0.45570253       0.47012894       0.37468790 </v>
   <v>       0.40614333       0.37888556       0.44852541 </v>
   <v>       0.28443799       0.35306162       0.45202062 </v>
   <v>       0.79326502       0.53703787       0.53892527 </v>
   <v>       0.55589708       0.58769132       0.61440612 </v>
   <v>       0.42412006       0.54328620       0.27986105 </v>
   <v>       0.50894741       0.65984570       0.70400156 </v>
   <v>       0.26265982       0.50568523       0.60265428 </v>
   <v>       0.21072272       0.41813760       0.53105039 </v>
   <v>       0.60090654       0.58197914       0.45254259 </v>
   <v>       0.38544357       0.65296704       0.72941133 </v>
   <v>       0.47424490       0.54794204       0.44140236 </v>
   <v>       0.40180479       0.45306079       0.52108436 </v>
   <v>       0.53520702       0.41608490       0.59173240 </v>
   <v>       0.46544808       0.54254992       0.59041194 </v>
   <v>       0.60138410       0.50650621       0.52397638 </v>
   <v>       0.53073984       0.40562607       0.44215451 </v>
   <v>       0.50088568       0.48087016       0.51934246 </v>
  </varray>
  <varray name="selective"  type="logical" >
   <v type="logical" >  T  T  T </v>
   <v type="logical" >  T  T  T </v>
   <v type="logical" >  T  T  T </v>
   <v type="logical" >  T  T  T </v>
   <v type="logical" >  T  T  T </v>
   <v type="logical" >  T  T  T </v>
   <v type="logical" >  T  T  T </v>
   <v type="logical" >  T  T  T </v>
   <v type="logical" >  T  T  T </v>
   <v type="logical" >  T  T  T </v>
   <v type="logical" >  T  T  T </v>
   <v type="logical" >  T  T  T </v>
   <v type="logical" >  T  T  T </v>
   <v type="logical" >  T  T  T </v>
   <v type="logical" >  T  T  T </v>
   <v type="logical" >  T  T  T </v>
   <v type="logical" >  T  T  T </v>
   <v type="logical" >  T  T  T </v>
   <v type="logical" >  T  T  T </v>
   <v type="logical" >  T  T  T </v>
   <v type="logical" >  T  T  T </v>
   <v type="logical" >  T  T  T </v>
   <v type="logical" >  T  T  T </v>
   <v type="logical" >  T  T  T </v>
   <v type="logical" >  T  T  T </v>
   <v type="logical" >  T  T  T </v>
   <v type="logical" >  T  T  T </v>
   <v type="logical" >  T  T  T </v>
   <v type="logical" >  T  T  T </v>
   <v type="logical" >  T  T  T </v>
   <v type="logical" >  T  T  T </v>
   <v type="logical" >  T  T  T </v>
   <v type="logical" >  T  T  T </v>
   <v type="logical" >  T  T  T </v>
   <v type="logical" >  T  T  T </v>
   <v type="logical" >  T  T  T </v>
   <v type="logical" >  T  T  T </v>
   <v type="logical" >  T  T  T </v>
   <v type="logical" >  T  T  T </v>
   <v type="logical" >  T  T  T </v>
   <v type="logical" >  T  T  T </v>
   <v type="logical" >  T  T  T </v>
   <v type="logical" >  T  T  T </v>
   <v type="logical" >  T  T  T </v>
   <v type="logical" >  T  T  T </v>
   <v type="logical" >  T  T  T </v>
   <v type="logical" >  T  T  T </v>
   <v type="logical" >  T  T  T </v>
   <v type="logical" >  T  T  T </v>
   <v type="logical" >  T  T  T </v>
   <v type="logical" >  T  T  T </v>
   <v type="logical" >  T  T  T </v>
   <v type="logical" >  T  T  T </v>
   <v type="logical" >  T  T  T </v>
   <v type="logical" >  T  T  T </v>
  </varray>
  <nose>
   <v>      -3.00000000       0.00000000       0.00010000       0.00010000 </v>
  </nose>
 </structure>
 <calculation>
  <scstep>
   <time name="dav">   14.76   15.74</time>
   <time name="total">   22.32   23.33</time>
   <energy>
    <i name="alphaZ">     12.91687988 </i>
    <i name="ewald">  23314.69228165 </i>
    <i name="hartreedc"> -28916.72981750 </i>
    <i name="XCdc">    400.96197065 </i>
    <i name="pawpsdc">   5890.45591622 </i>
    <i name="pawaedc">  -5710.10246236 </i>
    <i name="eentropy">     -0.00069286 </i>
    <i name="bandstr">  -1675.42366895 </i>
    <i name="atom">   7593.39991119 </i>
    <i name="e_fr_energy">    910.17031793 </i>
    <i name="e_wo_entrp">    910.17101079 </i>
    <i name="e_0_energy">    910.17066436 </i>
   </energy>
  </scstep>
  <scstep>
   <time name="dav">   19.03   20.26</time>
   <time name="total">   19.05   20.27</time>
   <energy>
    <i name="e_fr_energy">    -68.16403271 </i>
    <i name="e_wo_entrp">    -68.16403271 </i>
    <i name="e_0_energy">    -68.16403271 </i>
   </energy>
  </scstep>
  <scstep>
   <time name="dav">   15.99   16.92</time>
   <time name="total">   16.01   16.94</time>
   <energy>
    <i name="e_fr_energy">   -392.65879740 </i>
    <i name="e_wo_entrp">   -392.65879740 </i>
    <i name="e_0_energy">   -392.65879740 </i>
   </energy>
  </scstep>
  <scstep>
   <time name="dav">   12.68   13.41</time>
   <time name="total">   12.69   13.42</time>
   <energy>
    <i name="e_fr_energy">   -411.55046230 </i>
    <i name="e_wo_entrp">   -411.55046230 </i>
    <i name="e_0_energy">   -411.55046230 </i>
   </energy>
  </scstep>
  <scstep>
   <time name="dav">   16.87   18.03</time>
   <time name="total">   22.23   23.40</time>
   <energy>
    <i name="e_fr_energy">   -411.85039280 </i>
    <i name="e_wo_entrp">   -411.85039280 </i>
    <i name="e_0_energy">   -411.85039280 </i>
   </energy>
  </scstep>
  <scstep>
   <time name="dav">   10.79   11.47</time>
   <time name="total">   23.49   24.23</time>
   <energy>
    <i name="e_fr_energy">   -393.40754757 </i>
    <i name="e_wo_entrp">   -393.40754757 </i>
    <i name="e_0_energy">   -393.40754757 </i>
   </energy>
  </scstep>
  <scstep>
   <time name="dav">   15.03   16.32</time>
   <time name="total">   27.85   29.20</time>
   <energy>
    <i name="e_fr_energy">   -382.73979663 </i>
    <i name="e_wo_entrp">   -382.73979663 </i>
    <i name="e_0_energy">   -382.73979663 </i>
   </energy>
  </scstep>
  <scstep>
   <time name="dav">   15.19   16.46</time>
   <time name="total">   27.77   29.25</time>
   <energy>
    <i name="e_fr_energy">   -378.45734116 </i>
    <i name="e_wo_entrp">   -378.45734116 </i>
    <i name="e_0_energy">   -378.45734116 </i>
   </energy>
  </scstep>
  <scstep>
   <time name="dav">   15.08   16.31</time>
   <time name="total">   27.99   29.26</time>
   <energy>
    <i name="e_fr_energy">   -377.28012086 </i>
    <i name="e_wo_entrp">   -377.28012086 </i>
    <i name="e_0_energy">   -377.28012086 </i>
   </energy>
  </scstep>
  <scstep>
   <time name="dav">   15.11   16.39</time>
   <time name="total">   28.05   29.42</time>
   <energy>
    <i name="e_fr_energy">   -377.24032035 </i>
    <i name="e_wo_entrp">   -377.24032035 </i>
    <i name="e_0_energy">   -377.24032035 </i>
   </energy>
  </scstep>
  <scstep>
   <time name="dav">   15.14   16.45</time>
   <time name="total">   28.00   29.36</time>
   <energy>
    <i name="e_fr_energy">   -377.10026874 </i>
    <i name="e_wo_entrp">   -377.10026874 </i>
    <i name="e_0_energy">   -377.10026874 </i>
   </energy>
  </scstep>
  <scstep>
   <time name="dav">   15.19   16.45</time>
   <time name="total">   28.06   29.34</time>
   <energy>
    <i name="e_fr_energy">   -377.03149453 </i>
    <i name="e_wo_entrp">   -377.03149453 </i>
    <i name="e_0_energy">   -377.03149453 </i>
   </energy>
  </scstep>
  <scstep>
   <time name="dav">   15.05   16.34</time>
   <time name="total">   27.87   29.19</time>
   <energy>
    <i name="e_fr_energy">   -377.01231022 </i>
    <i name="e_wo_entrp">   -377.01231022 </i>
    <i name="e_0_energy">   -377.01231022 </i>
   </energy>
  </scstep>
  <scstep>
   <time name="dav">   15.05   16.34</time>
   <time name="total">   28.13   29.46</time>
   <energy>
    <i name="e_fr_energy">   -377.00281074 </i>
    <i name="e_wo_entrp">   -377.00281074 </i>
    <i name="e_0_energy">   -377.00281074 </i>
   </energy>
  </scstep>
  <scstep>
   <time name="dav">   15.06   16.35</time>
   <time name="total">   27.92   29.23</time>
   <energy>
    <i name="e_fr_energy">   -377.00318495 </i>
    <i name="e_wo_entrp">   -377.00318495 </i>
    <i name="e_0_energy">   -377.00318495 </i>
   </energy>
  </scstep>
  <scstep>
   <time name="dav">   15.05   16.35</time>
   <time name="total">   28.12   29.46</time>
   <energy>
    <i name="e_fr_energy">   -377.01415117 </i>
    <i name="e_wo_entrp">   -377.01415117 </i>
    <i name="e_0_energy">   -377.01415117 </i>
   </energy>
  </scstep>
  <scstep>
   <time name="dav">   15.06   16.35</time>
   <time name="total">   27.92   29.25</time>
   <energy>
    <i name="e_fr_energy">   -377.01917630 </i>
    <i name="e_wo_entrp">   -377.01917630 </i>
    <i name="e_0_energy">   -377.01917630 </i>
   </energy>
  </scstep>
  <scstep>
   <time name="dav">   15.17   16.48</time>
   <time name="total">   27.98   29.34</time>
   <energy>
    <i name="e_fr_energy">   -377.02316522 </i>
    <i name="e_wo_entrp">   -377.02316522 </i>
    <i name="e_0_energy">   -377.02316522 </i>
   </energy>
  </scstep>
  <scstep>
   <time name="dav">   15.03   16.32</time>
   <time name="total">   27.94   29.31</time>
   <energy>
    <i name="e_fr_energy">   -377.02715435 </i>
    <i name="e_wo_entrp">   -377.02715435 </i>
    <i name="e_0_energy">   -377.02715435 </i>
   </energy>
  </scstep>
  <scstep>
   <time name="dav">   15.01   16.34</time>
   <time name="total">   27.85   29.29</time>
   <energy>
    <i name="e_fr_energy">   -377.02905636 </i>
    <i name="e_wo_entrp">   -377.02905636 </i>
    <i name="e_0_energy">   -377.02905636 </i>
   </energy>
  </scstep>
  <scstep>
   <time name="dav">   15.04   16.34</time>
   <time name="total">   27.83   29.20</time>
   <energy>
    <i name="e_fr_energy">   -377.03056013 </i>
    <i name="e_wo_entrp">   -377.03056013 </i>
    <i name="e_0_energy">   -377.03056013 </i>
   </energy>
  </scstep>
  <scstep>
   <time name="dav">   15.03   16.56</time>
   <time name="total">   27.94   29.52</time>
   <energy>
    <i name="e_fr_energy">   -377.03185092 </i>
    <i name="e_wo_entrp">   -377.03185092 </i>
    <i name="e_0_energy">   -377.03185092 </i>
   </energy>
  </scstep>
  <scstep>
   <time name="dav">   13.05   14.27</time>
   <time name="total">   26.07   27.32</time>
   <energy>
    <i name="e_fr_energy">   -377.03247937 </i>
    <i name="e_wo_entrp">   -377.03247937 </i>
    <i name="e_0_energy">   -377.03247937 </i>
   </energy>
  </scstep>
  <scstep>
   <time name="dav">   13.32   14.50</time>
   <time name="total">   26.17   27.39</time>
   <energy>
    <i name="e_fr_energy">   -377.03286883 </i>
    <i name="e_wo_entrp">   -377.03286883 </i>
    <i name="e_0_energy">   -377.03286883 </i>
   </energy>
  </scstep>
  <scstep>
   <time name="dav">   13.05   14.44</time>
   <time name="total">   26.04   27.50</time>
   <energy>
    <i name="e_fr_energy">   -377.03305300 </i>
    <i name="e_wo_entrp">   -377.03305300 </i>
    <i name="e_0_energy">   -377.03305300 </i>
   </energy>
  </scstep>
  <scstep>
   <time name="dav">   13.12   14.42</time>
   <time name="total">   26.05   27.39</time>
   <energy>
    <i name="e_fr_energy">   -377.03320612 </i>
    <i name="e_wo_entrp">   -377.03320612 </i>
    <i name="e_0_energy">   -377.03320612 </i>
   </energy>
  </scstep>
  <scstep>
   <time name="dav">   13.24   14.40</time>
   <time name="total">   26.18   27.36</time>
   <energy>
    <i name="e_fr_energy">   -377.03327709 </i>
    <i name="e_wo_entrp">   -377.03327709 </i>
    <i name="e_0_energy">   -377.03327709 </i>
   </energy>
  </scstep>
  <scstep>
   <time name="dav">   13.11   14.27</time>
   <time name="total">   26.12   27.31</time>
   <energy>
    <i name="e_fr_energy">   -377.03331799 </i>
    <i name="e_wo_entrp">   -377.03331799 </i>
    <i name="e_0_energy">   -377.03331799 </i>
   </energy>
  </scstep>
  <scstep>
   <time name="dav">   13.24   14.38</time>
   <time name="total">   26.20   27.39</time>
   <energy>
    <i name="e_fr_energy">   -377.03334644 </i>
    <i name="e_wo_entrp">   -377.03334644 </i>
    <i name="e_0_energy">   -377.03334644 </i>
   </energy>
  </scstep>
  <scstep>
   <time name="dav">   13.11   14.28</time>
   <time name="total">   26.28   27.50</time>
   <energy>
    <i name="e_fr_energy">   -377.03335912 </i>
    <i name="e_wo_entrp">   -377.03335912 </i>
    <i name="e_0_energy">   -377.03335912 </i>
   </energy>
  </scstep>
  <scstep>
   <time name="dav">   13.20   14.36</time>
   <time name="total">   20.73   21.95</time>
   <energy>
    <i name="alphaZ">     12.91687988 </i>
    <i name="ewald">  23314.69228165 </i>
    <i name="hartreedc"> -29150.74781355 </i>
    <i name="XCdc">    424.24023616 </i>
    <i name="pawpsdc">  81167.93681253 </i>
    <i name="pawaedc"> -80994.73381857 </i>
    <i name="eentropy">     -0.00000000 </i>
    <i name="bandstr">  -2744.73785633 </i>
    <i name="atom">   7593.39991119 </i>
    <i name="e_fr_energy">   -377.03336703 </i>
    <i name="e_wo_entrp">   -377.03336703 </i>
    <i name="e_0_energy">   -377.03336703 </i>
   </energy>
  </scstep>
  <structure>
   <crystal>
    <varray name="basis" >
     <v>      20.00000000       0.00000000       0.00000000 </v>
     <v>       0.00000000      20.00000000       0.00000000 </v>
     <v>       0.00000000       0.00000000      20.00000000 </v>
    </varray>
    <i name="volume">   8000.00000000 </i>
    <varray name="rec_basis" >
     <v>       0.05000000       0.00000000       0.00000000 </v>
     <v>       0.00000000       0.05000000       0.00000000 </v>
     <v>       0.00000000       0.00000000       0.05000000 </v>
    </varray>
   </crystal>
   <varray name="positions" >
    <v>       0.63257913       0.55363620       0.48652424 </v>
    <v>       0.43793752       0.56561110       0.32757008 </v>
    <v>       0.45581208       0.52423376       0.38051465 </v>
    <v>       0.47372925       0.61530131       0.44986522 </v>
    <v>       0.45595175       0.65963312       0.39935201 </v>
    <v>       0.43785737       0.63472201       0.33675972 </v>
    <v>       0.52307882       0.32955005       0.67474498 </v>
    <v>       0.49710163       0.37190466       0.62618823 </v>
    <v>       0.60227374       0.41933300       0.60593616 </v>
    <v>       0.63096398       0.37761922       0.65422416 </v>
    <v>       0.73964927       0.52855915       0.53463181 </v>
    <v>       0.70082162       0.56612858       0.49044049 </v>
    <v>       0.29334713       0.47671938       0.56830116 </v>
    <v>       0.63952130       0.46927713       0.56732841 </v>
    <v>       0.70843899       0.47974495       0.57314689 </v>
    <v>       0.59134754       0.33224398       0.68903016 </v>
    <v>       0.36211554       0.48866484       0.56417415 </v>
    <v>       0.40790931       0.62211625       0.69058213 </v>
    <v>       0.47619960       0.62606623       0.67660612 </v>
    <v>       0.50295190       0.58590820       0.62668073 </v>
    <v>       0.39825425       0.53800137       0.60426081 </v>
    <v>       0.36904589       0.57756069       0.65398228 </v>
    <v>       0.37289802       0.40579857       0.48223443 </v>
    <v>       0.30486503       0.39173492       0.48443166 </v>
    <v>       0.26422003       0.42785518       0.52821594 </v>
    <v>       0.48989745       0.29510618       0.70074864 </v>
    <v>       0.61334240       0.29968355       0.72673159 </v>
    <v>       0.68424189       0.38076917       0.66478776 </v>
    <v>       0.54225374       0.36233861       0.46129841 </v>
    <v>       0.31579090       0.57306911       0.66420366 </v>
    <v>       0.44416348       0.37118871       0.61364770 </v>
    <v>       0.42392665       0.66833230       0.29622671 </v>
    <v>       0.45642762       0.71313270       0.40950260 </v>
    <v>       0.48809132       0.63358802       0.49907234 </v>
    <v>       0.56912778       0.41808713       0.41480476 </v>
    <v>       0.73767440       0.44963919       0.60776512 </v>
    <v>       0.72277620       0.60481012       0.45904817 </v>
    <v>       0.45570253       0.47012894       0.37468790 </v>
    <v>       0.40614333       0.37888556       0.44852541 </v>
    <v>       0.28443799       0.35306162       0.45202062 </v>
    <v>       0.79326502       0.53703787       0.53892527 </v>
    <v>       0.55589708       0.58769132       0.61440612 </v>
    <v>       0.42412006       0.54328620       0.27986105 </v>
    <v>       0.50894741       0.65984570       0.70400156 </v>
    <v>       0.26265982       0.50568523       0.60265428 </v>
    <v>       0.21072272       0.41813760       0.53105039 </v>
    <v>       0.60090654       0.58197914       0.45254259 </v>
    <v>       0.38544357       0.65296704       0.72941133 </v>
    <v>       0.47424490       0.54794204       0.44140236 </v>
    <v>       0.40180479       0.45306079       0.52108436 </v>
    <v>       0.53520702       0.41608490       0.59173240 </v>
    <v>       0.46544808       0.54254992       0.59041194 </v>
    <v>       0.60138410       0.50650621       0.52397638 </v>
    <v>       0.53073984       0.40562607       0.44215451 </v>
    <v>       0.50088568       0.48087016       0.51934246 </v>
   </varray>
  </structure>
  <varray name="forces" >
   <v>       0.57550194       0.26396298      -0.13383948 </v>
   <v>      -0.00760638      -0.00634792      -0.00244875 </v>
   <v>      -0.01059668      -0.04432501      -0.01579530 </v>
   <v>       0.03671989       0.04278299       0.00825531 </v>
   <v>       0.01533916       0.02824624       0.00532189 </v>
   <v>      -0.00699473      -0.00045530      -0.00724179 </v>
   <v>       0.06380143      -0.01285663       0.02716758 </v>
   <v>      -0.00421986       0.06867504      -0.07302105 </v>
   <v>      -0.10754998      -0.02054697      -0.00294972 </v>
   <v>       0.07986252       0.06977393      -0.04343703 </v>
   <v>      -0.01579327      -0.06797638       0.06332035 </v>
   <v>      -1.03585913      -0.19953270      -0.04242887 </v>
   <v>       0.01331985       0.00714292       0.00148186 </v>
   <v>      -0.00460412      -0.02857592       0.03562160 </v>
   <v>       0.04236676       0.12598733      -0.11036072 </v>
   <v>      -0.03037186      -0.02843246       0.02117823 </v>
   <v>       0.03098543       0.00755336      -0.00645694 </v>
   <v>       0.01781182      -0.00635810      -0.01389772 </v>
   <v>       0.01174866       0.01173993       0.00880336 </v>
   <v>      -0.03067405      -0.02605352      -0.02747621 </v>
   <v>       0.02065381      -0.01044871      -0.01328456 </v>
   <v>       0.00137440      -0.00269994      -0.00757092 </v>
   <v>       0.08777398       0.00339804      -0.01872383 </v>
   <v>      -0.02373500       0.00754169       0.01190721 </v>
   <v>       0.02730214      -0.01111386      -0.01650214 </v>
   <v>      -0.00096793      -0.00793175       0.00678848 </v>
   <v>       0.00614331       0.00017657       0.00219284 </v>
   <v>       0.00684819      -0.02197848       0.02471615 </v>
   <v>      -0.01040748      -0.04546399      -0.02219495 </v>
   <v>       0.00092770       0.00470148      -0.00077264 </v>
   <v>       0.00051263      -0.00399697       0.00102606 </v>
   <v>      -0.00470093       0.00647798      -0.00110328 </v>
   <v>       0.00063473       0.00451555       0.00070324 </v>
   <v>      -0.02066635       0.01962533       0.02525563 </v>
   <v>      -0.04968995      -0.05027927      -0.05375771 </v>
   <v>       0.01170827       0.00032721       0.00087325 </v>
   <v>      -0.14246174       0.02614026      -0.06026847 </v>
   <v>      -0.01315739      -0.00309731      -0.01174009 </v>
   <v>      -0.00901310      -0.01278101      -0.00715044 </v>
   <v>       0.00525428      -0.00654328      -0.00193789 </v>
   <v>      -0.02878427       0.05049678      -0.05118239 </v>
   <v>       0.00225094       0.01804075       0.02559784 </v>
   <v>      -0.00689092      -0.00149141       0.00280431 </v>
   <v>       0.00021345       0.00359614       0.00167570 </v>
   <v>       0.00191498      -0.00201732      -0.00137663 </v>
   <v>      -0.00450566      -0.00259679      -0.00146084 </v>
   <v>       0.63978623      -0.60378895       0.73477814 </v>
   <v>      -0.00045167       0.00679729       0.00640004 </v>
   <v>       0.01785255       0.00269175      -0.02920259 </v>
   <v>      -0.09612334      -0.02348479       0.03636718 </v>
   <v>      -0.05594688      -0.01010114       0.01721600 </v>
   <v>      -0.08732369       0.09522760       0.11056405 </v>
   <v>      -0.25710517       0.31171292      -0.32290899 </v>
   <v>       0.01344667       0.05274192       0.04748842 </v>
   <v>       0.33414582       0.02120193      -0.12701278 </v>
  </varray>
  <varray name="stress" >
   <v>      -3.16228336      -0.04343569      -0.07280207 </v>
   <v>      -0.04343565      -2.75136999       0.22006255 </v>
   <v>      -0.07280209       0.22006256      -2.79688670 </v>
  </varray>
  <energy>
   <i name="e_fr_energy">   -377.03336703 </i>
   <i name="e_wo_entrp">   -377.03336703 </i>
   <i name="e_0_energy">     -0.00000000 </i>
  </energy>
  <time name="totalsc"> 1036.36 1077.21</time>
  <eigenvalues>
   <array>
    <dimension dim="1">band</dimension>
    <dimension dim="2">kpoint</dimension>
    <dimension dim="3">spin</dimension>
    <field>eigene</field>
    <field>occ</field>
    <set>
     <set comment="spin 1">
      <set comment="kpoint 1">
       <r>  -49.1978    1.0000 </r>
       <r>  -49.0360    1.0000 </r>
       <r>  -48.8234    1.0000 </r>
       <r>  -29.2667    1.0000 </r>
       <r>  -27.9332    1.0000 </r>
       <r>  -26.8989    1.0000 </r>
       <r>  -26.6429    1.0000 </r>
       <r>  -26.2528    1.0000 </r>
       <r>  -26.1745    1.0000 </r>
       <r>  -23.4342    1.0000 </r>
       <r>  -23.2812    1.0000 </r>
       <r>  -22.5193    1.0000 </r>
       <r>  -22.4306    1.0000 </r>
       <r>  -22.3290    1.0000 </r>
       <r>  -22.1980    1.0000 </r>
       <r>  -22.1125    1.0000 </r>
       <r>  -21.5293    1.0000 </r>
       <r>  -21.1900    1.0000 </r>
       <r>  -20.8023    1.0000 </r>
       <r>  -19.5669    1.0000 </r>
       <r>  -19.3449    1.0000 </r>
       <r>  -18.7403    1.0000 </r>
       <r>  -18.4550    1.0000 </r>
       <r>  -18.1875    1.0000 </r>
       <r>  -17.9293    1.0000 </r>
       <r>  -17.9001    1.0000 </r>
       <r>  -17.6988    1.0000 </r>
       <r>  -17.6209    1.0000 </r>
       <r>  -17.3129    1.0000 </r>
       <r>  -16.9413    1.0000 </r>
       <r>  -16.6796    1.0000 </r>
       <r>  -15.9001    1.0000 </r>
       <r>  -15.7358    1.0000 </r>
       <r>  -15.3497    1.0000 </r>
       <r>  -15.2850    1.0000 </r>
       <r>  -14.8250    1.0000 </r>
       <r>  -14.7780    1.0000 </r>
       <r>  -14.7173    1.0000 </r>
       <r>  -14.3782    1.0000 </r>
       <r>  -14.1981    1.0000 </r>
       <r>  -14.1330    1.0000 </r>
       <r>  -14.0744    1.0000 </r>
       <r>  -13.9450    1.0000 </r>
       <r>  -13.9094    1.0000 </r>
       <r>  -13.8001    1.0000 </r>
       <r>  -13.5694    1.0000 </r>
       <r>  -13.4727    1.0000 </r>
       <r>  -13.3804    1.0000 </r>
       <r>  -13.2065    1.0000 </r>
       <r>  -13.1154    1.0000 </r>
       <r>  -12.8822    1.0000 </r>
       <r>  -12.8768    1.0000 </r>
       <r>  -12.8249    1.0000 </r>
       <r>  -12.7206    1.0000 </r>
       <r>  -12.6011    1.0000 </r>
       <r>  -12.4581    1.0000 </r>
       <r>  -12.3471    1.0000 </r>
       <r>  -12.1926    1.0000 </r>
       <r>  -12.1471    1.0000 </r>
       <r>  -12.0449    1.0000 </r>
       <r>  -11.6444    1.0000 </r>
       <r>  -11.5202    1.0000 </r>
       <r>  -11.3108    1.0000 </r>
       <r>  -11.1482    1.0000 </r>
       <r>  -11.0760    1.0000 </r>
       <r>  -10.8203    1.0000 </r>
       <r>  -10.7776    1.0000 </r>
       <r>  -10.6963    1.0000 </r>
       <r>  -10.5866    1.0000 </r>
       <r>  -10.4679    1.0000 </r>
       <r>  -10.1659    1.0000 </r>
       <r>  -10.0826    1.0000 </r>
       <r>   -9.8907    1.0000 </r>
       <r>   -9.8038    1.0000 </r>
       <r>   -9.7445    1.0000 </r>
       <r>   -9.6135    1.0000 </r>
       <r>   -9.4351    1.0000 </r>
       <r>   -8.9869    1.0000 </r>
       <r>   -8.8265    1.0000 </r>
       <r>   -8.3781    1.0000 </r>
       <r>   -7.5509    1.0000 </r>
       <r>   -7.3501    1.0000 </r>
       <r>   -7.1931    1.0000 </r>
       <r>   -5.5939    0.0000 </r>
       <r>   -5.3775    0.0000 </r>
       <r>   -4.9651    0.0000 </r>
       <r>   -4.3445    0.0000 </r>
       <r>   -4.2085    0.0000 </r>
       <r>   -4.1129    0.0000 </r>
       <r>   -3.9684    0.0000 </r>
       <r>   -3.9306    0.0000 </r>
       <r>   -3.5844    0.0000 </r>
       <r>   -3.3413    0.0000 </r>
       <r>   -3.2484    0.0000 </r>
       <r>   -2.9778    0.0000 </r>
       <r>   -2.7190    0.0000 </r>
       <r>   -1.9866    0.0000 </r>
       <r>   -1.7538    0.0000 </r>
       <r>   -1.6418    0.0000 </r>
       <r>   -1.3939    0.0000 </r>
       <r>   -1.2857    0.0000 </r>
       <r>   -1.2154    0.0000 </r>
       <r>   -1.1202    0.0000 </r>
       <r>   -0.9668    0.0000 </r>
       <r>   -0.9510    0.0000 </r>
       <r>   -0.7171    0.0000 </r>
       <r>   -0.6970    0.0000 </r>
       <r>   -0.6360    0.0000 </r>
       <r>   -0.5175    0.0000 </r>
       <r>   -0.4345    0.0000 </r>
       <r>   -0.4218    0.0000 </r>
       <r>   -0.3119    0.0000 </r>
       <r>   -0.2942    0.0000 </r>
       <r>   -0.1795    0.0000 </r>
       <r>   -0.0718    0.0000 </r>
       <r>   -0.0212    0.0000 </r>
       <r>    0.0592    0.0000 </r>
       <r>    0.1226    0.0000 </r>
       <r>    0.1895    0.0000 </r>
       <r>    0.2880    0.0000 </r>
       <r>    0.3205    0.0000 </r>
       <r>    0.3917    0.0000 </r>
       <r>    0.4202    0.0000 </r>
       <r>    0.4947    0.0000 </r>
       <r>    0.5316    0.0000 </r>
       <r>    0.5850    0.0000 </r>
       <r>    0.6241    0.0000 </r>
       <r>    0.6567    0.0000 </r>
      </set>
     </set>
     <set comment="spin 2">
      <set comment="kpoint 1">
       <r>  -49.1978    1.0000 </r>
       <r>  -49.0360    1.0000 </r>
       <r>  -48.8234    1.0000 </r>
       <r>  -29.2667    1.0000 </r>
       <r>  -27.9332    1.0000 </r>
       <r>  -26.8989    1.0000 </r>
       <r>  -26.6429    1.0000 </r>
       <r>  -26.2528    1.0000 </r>
       <r>  -26.1745    1.0000 </r>
       <r>  -23.4342    1.0000 </r>
       <r>  -23.2812    1.0000 </r>
       <r>  -22.5193    1.0000 </r>
       <r>  -22.4306    1.0000 </r>
       <r>  -22.3290    1.0000 </r>
       <r>  -22.1980    1.0000 </r>
       <r>  -22.1125    1.0000 </r>
       <r>  -21.5293    1.0000 </r>
       <r>  -21.1900    1.0000 </r>
       <r>  -20.8023    1.0000 </r>
       <r>  -19.5669    1.0000 </r>
       <r>  -19.3449    1.0000 </r>
       <r>  -18.7403    1.0000 </r>
       <r>  -18.4550    1.0000 </r>
       <r>  -18.1875    1.0000 </r>
       <r>  -17.9293    1.0000 </r>
       <r>  -17.9001    1.0000 </r>
       <r>  -17.6988    1.0000 </r>
       <r>  -17.6209    1.0000 </r>
       <r>  -17.3129    1.0000 </r>
       <r>  -16.9413    1.0000 </r>
       <r>  -16.6796    1.0000 </r>
       <r>  -15.9001    1.0000 </r>
       <r>  -15.7358    1.0000 </r>
       <r>  -15.3497    1.0000 </r>
       <r>  -15.2850    1.0000 </r>
       <r>  -14.8250    1.0000 </r>
       <r>  -14.7780    1.0000 </r>
       <r>  -14.7173    1.0000 </r>
       <r>  -14.3782    1.0000 </r>
       <r>  -14.1981    1.0000 </r>
       <r>  -14.1330    1.0000 </r>
       <r>  -14.0744    1.0000 </r>
       <r>  -13.9450    1.0000 </r>
       <r>  -13.9094    1.0000 </r>
       <r>  -13.8001    1.0000 </r>
       <r>  -13.5694    1.0000 </r>
       <r>  -13.4727    1.0000 </r>
       <r>  -13.3804    1.0000 </r>
       <r>  -13.2065    1.0000 </r>
       <r>  -13.1154    1.0000 </r>
       <r>  -12.8822    1.0000 </r>
       <r>  -12.8768    1.0000 </r>
       <r>  -12.8249    1.0000 </r>
       <r>  -12.7206    1.0000 </r>
       <r>  -12.6011    1.0000 </r>
       <r>  -12.4581    1.0000 </r>
       <r>  -12.3471    1.0000 </r>
       <r>  -12.1926    1.0000 </r>
       <r>  -12.1471    1.0000 </r>
       <r>  -12.0449    1.0000 </r>
       <r>  -11.6444    1.0000 </r>
       <r>  -11.5202    1.0000 </r>
       <r>  -11.3108    1.0000 </r>
       <r>  -11.1482    1.0000 </r>
       <r>  -11.0760    1.0000 </r>
       <r>  -10.8203    1.0000 </r>
       <r>  -10.7776    1.0000 </r>
       <r>  -10.6963    1.0000 </r>
       <r>  -10.5866    1.0000 </r>
       <r>  -10.4679    1.0000 </r>
       <r>  -10.1659    1.0000 </r>
       <r>  -10.0826    1.0000 </r>
       <r>   -9.8907    1.0000 </r>
       <r>   -9.8038    1.0000 </r>
       <r>   -9.7445    1.0000 </r>
       <r>   -9.6135    1.0000 </r>
       <r>   -9.4351    1.0000 </r>
       <r>   -8.9869    1.0000 </r>
       <r>   -8.8265    1.0000 </r>
       <r>   -8.3781    1.0000 </r>
       <r>   -7.5509    1.0000 </r>
       <r>   -7.3501    1.0000 </r>
       <r>   -7.1931    1.0000 </r>
       <r>   -5.5939    0.0000 </r>
       <r>   -5.3775    0.0000 </r>
       <r>   -4.9651    0.0000 </r>
       <r>   -4.3445    0.0000 </r>
       <r>   -4.2085    0.0000 </r>
       <r>   -4.1129    0.0000 </r>
       <r>   -3.9684    0.0000 </r>
       <r>   -3.9306    0.0000 </r>
       <r>   -3.5844    0.0000 </r>
       <r>   -3.3413    0.0000 </r>
       <r>   -3.2484    0.0000 </r>
       <r>   -2.9778    0.0000 </r>
       <r>   -2.7190    0.0000 </r>
       <r>   -1.9866    0.0000 </r>
       <r>   -1.7538    0.0000 </r>
       <r>   -1.6418    0.0000 </r>
       <r>   -1.3939    0.0000 </r>
       <r>   -1.2857    0.0000 </r>
       <r>   -1.2154    0.0000 </r>
       <r>   -1.1202    0.0000 </r>
       <r>   -0.9668    0.0000 </r>
       <r>   -0.9510    0.0000 </r>
       <r>   -0.7171    0.0000 </r>
       <r>   -0.6970    0.0000 </r>
       <r>   -0.6360    0.0000 </r>
       <r>   -0.5175    0.0000 </r>
       <r>   -0.4345    0.0000 </r>
       <r>   -0.4218    0.0000 </r>
       <r>   -0.3119    0.0000 </r>
       <r>   -0.2942    0.0000 </r>
       <r>   -0.1795    0.0000 </r>
       <r>   -0.0718    0.0000 </r>
       <r>   -0.0212    0.0000 </r>
       <r>    0.0592    0.0000 </r>
       <r>    0.1226    0.0000 </r>
       <r>    0.1895    0.0000 </r>
       <r>    0.2880    0.0000 </r>
       <r>    0.3205    0.0000 </r>
       <r>    0.3917    0.0000 </r>
       <r>    0.4202    0.0000 </r>
       <r>    0.4947    0.0000 </r>
       <r>    0.5316    0.0000 </r>
       <r>    0.5850    0.0000 </r>
       <r>    0.6241    0.0000 </r>
       <r>    0.6567    0.0000 </r>
      </set>
     </set>
    </set>
   </array>
  </eigenvalues>
  <separator name="orbital magnetization" >
   <v name="MAGDIPOLOUT">      0.00000000      0.00000000      0.00000000</v>
  </separator>
  <dos>
   <i name="efermi">     -7.04165142 </i>
   <total>
    <array>
     <dimension dim="1">gridpoints</dimension>
     <dimension dim="2">spin</dimension>
     <field>energy</field>
     <field>total</field>
     <field>integrated</field>
     <set>
      <set comment="spin 1">
       <r>   -51.6905     0.0000     0.0000 </r>
       <r>   -51.5077     0.0000     0.0000 </r>
       <r>   -51.3249     0.0000     0.0000 </r>
       <r>   -51.1421     0.0000     0.0000 </r>
       <r>   -50.9593     0.0000     0.0000 </r>
       <r>   -50.7765     0.0000     0.0000 </r>
       <r>   -50.5937     0.0000     0.0000 </r>
       <r>   -50.4109     0.0000     0.0000 </r>
       <r>   -50.2281     0.0000     0.0000 </r>
       <r>   -50.0453     0.0000     0.0000 </r>
       <r>   -49.8625     0.0000     0.0000 </r>
       <r>   -49.6797     0.0000     0.0000 </r>
       <r>   -49.4969     0.0000     0.0000 </r>
       <r>   -49.3141     0.0000     0.0000 </r>
       <r>   -49.1313    10.9409     2.0000 </r>
       <r>   -48.9485     0.0000     4.0000 </r>
       <r>   -48.7657    10.9409     6.0000 </r>
       <r>   -48.5829     0.0000     6.0000 </r>
       <r>   -48.4001     0.0000     6.0000 </r>
       <r>   -48.2173     0.0000     6.0000 </r>
       <r>   -48.0345     0.0000     6.0000 </r>
       <r>   -47.8517     0.0000     6.0000 </r>
       <r>   -47.6689     0.0000     6.0000 </r>
       <r>   -47.4861     0.0000     6.0000 </r>
       <r>   -47.3033     0.0000     6.0000 </r>
       <r>   -47.1205     0.0000     6.0000 </r>
       <r>   -46.9377     0.0000     6.0000 </r>
       <r>   -46.7549     0.0000     6.0000 </r>
       <r>   -46.5721     0.0000     6.0000 </r>
       <r>   -46.3893     0.0000     6.0000 </r>
       <r>   -46.2065     0.0000     6.0000 </r>
       <r>   -46.0237     0.0000     6.0000 </r>
       <r>   -45.8409     0.0000     6.0000 </r>
       <r>   -45.6581     0.0000     6.0000 </r>
       <r>   -45.4753     0.0000     6.0000 </r>
       <r>   -45.2925     0.0000     6.0000 </r>
       <r>   -45.1097     0.0000     6.0000 </r>
       <r>   -44.9269     0.0000     6.0000 </r>
       <r>   -44.7441     0.0000     6.0000 </r>
       <r>   -44.5613     0.0000     6.0000 </r>
       <r>   -44.3785     0.0000     6.0000 </r>
       <r>   -44.1957     0.0000     6.0000 </r>
       <r>   -44.0129     0.0000     6.0000 </r>
       <r>   -43.8301     0.0000     6.0000 </r>
       <r>   -43.6473     0.0000     6.0000 </r>
       <r>   -43.4645     0.0000     6.0000 </r>
       <r>   -43.2817     0.0000     6.0000 </r>
       <r>   -43.0989     0.0000     6.0000 </r>
       <r>   -42.9161     0.0000     6.0000 </r>
       <r>   -42.7333     0.0000     6.0000 </r>
       <r>   -42.5505     0.0000     6.0000 </r>
       <r>   -42.3677     0.0000     6.0000 </r>
       <r>   -42.1849     0.0000     6.0000 </r>
       <r>   -42.0021     0.0000     6.0000 </r>
       <r>   -41.8193     0.0000     6.0000 </r>
       <r>   -41.6365     0.0000     6.0000 </r>
       <r>   -41.4537     0.0000     6.0000 </r>
       <r>   -41.2709     0.0000     6.0000 </r>
       <r>   -41.0881     0.0000     6.0000 </r>
       <r>   -40.9053     0.0000     6.0000 </r>
       <r>   -40.7225     0.0000     6.0000 </r>
       <r>   -40.5397     0.0000     6.0000 </r>
       <r>   -40.3569     0.0000     6.0000 </r>
       <r>   -40.1741     0.0000     6.0000 </r>
       <r>   -39.9913     0.0000     6.0000 </r>
       <r>   -39.8085     0.0000     6.0000 </r>
       <r>   -39.6257     0.0000     6.0000 </r>
       <r>   -39.4429     0.0000     6.0000 </r>
       <r>   -39.2601     0.0000     6.0000 </r>
       <r>   -39.0773     0.0000     6.0000 </r>
       <r>   -38.8945     0.0000     6.0000 </r>
       <r>   -38.7117     0.0000     6.0000 </r>
       <r>   -38.5289     0.0000     6.0000 </r>
       <r>   -38.3461     0.0000     6.0000 </r>
       <r>   -38.1633     0.0000     6.0000 </r>
       <r>   -37.9805     0.0000     6.0000 </r>
       <r>   -37.7977     0.0000     6.0000 </r>
       <r>   -37.6149     0.0000     6.0000 </r>
       <r>   -37.4321     0.0000     6.0000 </r>
       <r>   -37.2493     0.0000     6.0000 </r>
       <r>   -37.0665     0.0000     6.0000 </r>
       <r>   -36.8837     0.0000     6.0000 </r>
       <r>   -36.7009     0.0000     6.0000 </r>
       <r>   -36.5181     0.0000     6.0000 </r>
       <r>   -36.3353     0.0000     6.0000 </r>
       <r>   -36.1525     0.0000     6.0000 </r>
       <r>   -35.9697     0.0000     6.0000 </r>
       <r>   -35.7869     0.0000     6.0000 </r>
       <r>   -35.6041     0.0000     6.0000 </r>
       <r>   -35.4213     0.0000     6.0000 </r>
       <r>   -35.2385     0.0000     6.0000 </r>
       <r>   -35.0557     0.0000     6.0000 </r>
       <r>   -34.8729     0.0000     6.0000 </r>
       <r>   -34.6901     0.0000     6.0000 </r>
       <r>   -34.5073     0.0000     6.0000 </r>
       <r>   -34.3245     0.0000     6.0000 </r>
       <r>   -34.1417     0.0000     6.0000 </r>
       <r>   -33.9589     0.0000     6.0000 </r>
       <r>   -33.7761     0.0000     6.0000 </r>
       <r>   -33.5933     0.0000     6.0000 </r>
       <r>   -33.4105     0.0000     6.0000 </r>
       <r>   -33.2277     0.0000     6.0000 </r>
       <r>   -33.0449     0.0000     6.0000 </r>
       <r>   -32.8621     0.0000     6.0000 </r>
       <r>   -32.6793     0.0000     6.0000 </r>
       <r>   -32.4965     0.0000     6.0000 </r>
       <r>   -32.3137     0.0000     6.0000 </r>
       <r>   -32.1309     0.0000     6.0000 </r>
       <r>   -31.9481     0.0000     6.0000 </r>
       <r>   -31.7653     0.0000     6.0000 </r>
       <r>   -31.5825     0.0000     6.0000 </r>
       <r>   -31.3997     0.0000     6.0000 </r>
       <r>   -31.2169     0.0000     6.0000 </r>
       <r>   -31.0341     0.0000     6.0000 </r>
       <r>   -30.8513     0.0000     6.0000 </r>
       <r>   -30.6685     0.0000     6.0000 </r>
       <r>   -30.4857     0.0000     6.0000 </r>
       <r>   -30.3029     0.0000     6.0000 </r>
       <r>   -30.1201     0.0000     6.0000 </r>
       <r>   -29.9373     0.0000     6.0000 </r>
       <r>   -29.7545     0.0000     6.0000 </r>
       <r>   -29.5717     0.0000     6.0000 </r>
       <r>   -29.3889     0.0000     6.0000 </r>
       <r>   -29.2061    10.9409     8.0000 </r>
       <r>   -29.0233     0.0000     8.0000 </r>
       <r>   -28.8405     0.0000     8.0000 </r>
       <r>   -28.6577     0.0000     8.0000 </r>
       <r>   -28.4749     0.0000     8.0000 </r>
       <r>   -28.2921     0.0000     8.0000 </r>
       <r>   -28.1093     0.0000     8.0000 </r>
       <r>   -27.9265     9.0687     9.6578 </r>
       <r>   -27.7437     0.0000    10.0000 </r>
       <r>   -27.5609     0.0000    10.0000 </r>
       <r>   -27.3781     0.0000    10.0000 </r>
       <r>   -27.1953     0.0000    10.0000 </r>
       <r>   -27.0125     0.0000    10.0000 </r>
       <r>   -26.8297    10.9409    12.0000 </r>
       <r>   -26.6469     3.1088    12.5683 </r>
       <r>   -26.4641     0.0000    14.0000 </r>
       <r>   -26.2813     0.0003    14.0001 </r>
       <r>   -26.0985    10.9409    18.0000 </r>
       <r>   -25.9157     0.0000    18.0000 </r>
       <r>   -25.7329     0.0000    18.0000 </r>
       <r>   -25.5501     0.0000    18.0000 </r>
       <r>   -25.3673     0.0000    18.0000 </r>
       <r>   -25.1845     0.0000    18.0000 </r>
       <r>   -25.0017     0.0000    18.0000 </r>
       <r>   -24.8189     0.0000    18.0000 </r>
       <r>   -24.6361     0.0000    18.0000 </r>
       <r>   -24.4533     0.0000    18.0000 </r>
       <r>   -24.2705     0.0000    18.0000 </r>
       <r>   -24.0877     0.0000    18.0000 </r>
       <r>   -23.9049     0.0000    18.0000 </r>
       <r>   -23.7221     0.0000    18.0000 </r>
       <r>   -23.5393     0.0000    18.0000 </r>
       <r>   -23.3565    10.9409    20.0000 </r>
       <r>   -23.1737     0.0000    22.0000 </r>
       <r>   -22.9909     0.0000    22.0000 </r>
       <r>   -22.8081     0.0000    22.0000 </r>
       <r>   -22.6253     0.0000    22.0000 </r>
       <r>   -22.4425    11.4390    24.0911 </r>
       <r>   -22.2597    10.9409    28.0000 </r>
       <r>   -22.0769    10.9409    32.0000 </r>
       <r>   -21.8941     0.0000    32.0000 </r>
       <r>   -21.7113     0.0000    32.0000 </r>
       <r>   -21.5285     5.9452    33.0868 </r>
       <r>   -21.3457     0.0000    34.0000 </r>
       <r>   -21.1629    10.9402    35.9999 </r>
       <r>   -20.9801     0.0000    36.0000 </r>
       <r>   -20.7973     8.3044    37.5181 </r>
       <r>   -20.6145     0.0000    38.0000 </r>
       <r>   -20.4317     0.0000    38.0000 </r>
       <r>   -20.2489     0.0000    38.0000 </r>
       <r>   -20.0661     0.0000    38.0000 </r>
       <r>   -19.8833     0.0000    38.0000 </r>
       <r>   -19.7005     0.0000    38.0000 </r>
       <r>   -19.5177    10.9409    40.0000 </r>
       <r>   -19.3349    10.0734    41.8414 </r>
       <r>   -19.1521     0.0000    42.0000 </r>
       <r>   -18.9693     0.0000    42.0000 </r>
       <r>   -18.7865     0.0000    42.0000 </r>
       <r>   -18.6037     0.0000    44.0000 </r>
       <r>   -18.4209    10.9409    46.0000 </r>
       <r>   -18.2381     0.0000    46.0000 </r>
       <r>   -18.0553     0.0000    48.0000 </r>
       <r>   -17.8725    21.8813    51.9999 </r>
       <r>   -17.6897     9.8556    53.8016 </r>
       <r>   -17.5069     0.0000    56.0000 </r>
       <r>   -17.3241     0.6200    56.1133 </r>
       <r>   -17.1413     0.0000    58.0000 </r>
       <r>   -16.9585     0.0805    58.0147 </r>
       <r>   -16.7757     0.0000    60.0000 </r>
       <r>   -16.5929     0.0000    62.0000 </r>
       <r>   -16.4101     0.0000    62.0000 </r>
       <r>   -16.2273     0.0000    62.0000 </r>
       <r>   -16.0445     0.0000    62.0000 </r>
       <r>   -15.8617    10.9409    64.0000 </r>
       <r>   -15.6789    10.9409    66.0000 </r>
       <r>   -15.4961     0.0000    66.0000 </r>
       <r>   -15.3133    10.9413    68.0001 </r>
       <r>   -15.1305     0.0000    70.0000 </r>
       <r>   -14.9477     0.0000    70.0000 </r>
       <r>   -14.7649    21.5272    73.9352 </r>
       <r>   -14.5821     0.0000    76.0000 </r>
       <r>   -14.3993     0.0154    76.0028 </r>
       <r>   -14.2165     0.0495    78.0090 </r>
       <r>   -14.0337    10.9409    84.0000 </r>
       <r>   -13.8509    10.9409    88.0000 </r>
       <r>   -13.6681     0.0000    90.0000 </r>
       <r>   -13.4853     0.4072    92.0744 </r>
       <r>   -13.3025    10.9409    96.0000 </r>
       <r>   -13.1197     2.9309    98.5358 </r>
       <r>   -12.9369     0.0000   100.0000 </r>
       <r>   -12.7541    10.9409   106.0000 </r>
       <r>   -12.5713    10.9408   110.0000 </r>
       <r>   -12.3885    10.9409   112.0000 </r>
       <r>   -12.2057     0.3486   114.0637 </r>
       <r>   -12.0229    10.9303   119.9981 </r>
       <r>   -11.8401     0.0000   120.0000 </r>
       <r>   -11.6573     0.3637   120.0665 </r>
       <r>   -11.4745    10.9409   124.0000 </r>
       <r>   -11.2917    10.9027   125.9930 </r>
       <r>   -11.1089    10.9410   128.0000 </r>
       <r>   -10.9261     0.0000   130.0000 </r>
       <r>   -10.7433    21.8819   134.0000 </r>
       <r>   -10.5605    10.9397   137.9998 </r>
       <r>   -10.3777     0.0000   140.0000 </r>
       <r>   -10.1949     0.0002   140.0000 </r>
       <r>   -10.0121    10.9409   144.0000 </r>
       <r>    -9.8293    10.9426   146.0003 </r>
       <r>    -9.6465     0.0000   150.0000 </r>
       <r>    -9.4637     0.0003   152.0000 </r>
       <r>    -9.2809     0.0000   154.0000 </r>
       <r>    -9.0981     0.0000   154.0000 </r>
       <r>    -8.9153    10.9409   156.0000 </r>
       <r>    -8.7325     0.0000   158.0000 </r>
       <r>    -8.5497     0.0000   158.0000 </r>
       <r>    -8.3669    10.3143   159.8854 </r>
       <r>    -8.1841     0.0000   160.0000 </r>
       <r>    -8.0014     0.0000   160.0000 </r>
       <r>    -7.8186     0.0000   160.0000 </r>
       <r>    -7.6358     0.0000   160.0000 </r>
       <r>    -7.4530     0.0000   162.0000 </r>
       <r>    -7.2702    10.9409   164.0000 </r>
       <r>    -7.0874     0.0000   166.0000 </r>
       <r>    -6.9046     0.0000   166.0000 </r>
       <r>    -6.7218     0.0000   166.0000 </r>
       <r>    -6.5390     0.0000   166.0000 </r>
       <r>    -6.3562     0.0000   166.0000 </r>
       <r>    -6.1734     0.0000   166.0000 </r>
       <r>    -5.9906     0.0000   166.0000 </r>
       <r>    -5.8078     0.0000   166.0000 </r>
       <r>    -5.6250     0.0001   166.0000 </r>
       <r>    -5.4422     0.0000   168.0000 </r>
       <r>    -5.2594     0.0000   170.0000 </r>
       <r>    -5.0766     0.0000   170.0000 </r>
       <r>    -4.8938    10.9409   172.0000 </r>
       <r>    -4.7110     0.0000   172.0000 </r>
       <r>    -4.5282     0.0000   172.0000 </r>
       <r>    -4.3454     4.9608   172.9068 </r>
       <r>    -4.1626    10.9409   176.0000 </r>
       <r>    -3.9798     0.5924   178.1083 </r>
       <r>    -3.7970     0.0000   182.0000 </r>
       <r>    -3.6142     0.0001   182.0000 </r>
       <r>    -3.4314     0.0000   184.0000 </r>
       <r>    -3.2486     5.3452   186.9771 </r>
       <r>    -3.0658     0.0000   188.0000 </r>
       <r>    -2.8830     0.0000   190.0000 </r>
       <r>    -2.7002    10.8995   191.9924 </r>
       <r>    -2.5174     0.0000   192.0000 </r>
       <r>    -2.3346     0.0000   192.0000 </r>
       <r>    -2.1518     0.0000   192.0000 </r>
       <r>    -1.9690    10.8717   193.9874 </r>
       <r>    -1.7862     0.0000   194.0000 </r>
       <r>    -1.6034    10.9409   198.0000 </r>
       <r>    -1.4206     0.0009   198.0002 </r>
       <r>    -1.2378    10.9494   202.0016 </r>
       <r>    -1.0550    10.9409   206.0000 </r>
       <r>    -0.8722    10.9409   210.0000 </r>
       <r>    -0.6894    20.3401   213.7182 </r>
       <r>    -0.5066    10.2816   217.8795 </r>
       <r>    -0.3238     0.5133   222.0938 </r>
       <r>    -0.1410    10.9409   228.0000 </r>
       <r>     0.0418    11.0182   232.0141 </r>
       <r>     0.2246    10.9409   238.0000 </r>
       <r>     0.4074    11.1851   244.0446 </r>
       <r>     0.5902    19.3549   251.5381 </r>
       <r>     0.7730     0.0000   256.0000 </r>
       <r>     0.9558     0.0000   256.0000 </r>
       <r>     1.1386     0.0000   256.0000 </r>
       <r>     1.3214     0.0000   256.0000 </r>
       <r>     1.5042     0.0000   256.0000 </r>
       <r>     1.6870     0.0000   256.0000 </r>
       <r>     1.8698     0.0000   256.0000 </r>
       <r>     2.0526     0.0000   256.0000 </r>
       <r>     2.2354     0.0000   256.0000 </r>
       <r>     2.4182     0.0000   256.0000 </r>
       <r>     2.6010     0.0000   256.0000 </r>
       <r>     2.7838     0.0000   256.0000 </r>
       <r>     2.9666     0.0000   256.0000 </r>
       <r>     3.1494     0.0000   256.0000 </r>
      </set>
      <set comment="spin 2">
       <r>   -51.6905     0.0000     0.0000 </r>
       <r>   -51.5077     0.0000     0.0000 </r>
       <r>   -51.3249     0.0000     0.0000 </r>
       <r>   -51.1421     0.0000     0.0000 </r>
       <r>   -50.9593     0.0000     0.0000 </r>
       <r>   -50.7765     0.0000     0.0000 </r>
       <r>   -50.5937     0.0000     0.0000 </r>
       <r>   -50.4109     0.0000     0.0000 </r>
       <r>   -50.2281     0.0000     0.0000 </r>
       <r>   -50.0453     0.0000     0.0000 </r>
       <r>   -49.8625     0.0000     0.0000 </r>
       <r>   -49.6797     0.0000     0.0000 </r>
       <r>   -49.4969     0.0000     0.0000 </r>
       <r>   -49.3141     0.0000     0.0000 </r>
       <r>   -49.1313    10.9409     2.0000 </r>
       <r>   -48.9485     0.0000     4.0000 </r>
       <r>   -48.7657    10.9409     6.0000 </r>
       <r>   -48.5829     0.0000     6.0000 </r>
       <r>   -48.4001     0.0000     6.0000 </r>
       <r>   -48.2173     0.0000     6.0000 </r>
       <r>   -48.0345     0.0000     6.0000 </r>
       <r>   -47.8517     0.0000     6.0000 </r>
       <r>   -47.6689     0.0000     6.0000 </r>
       <r>   -47.4861     0.0000     6.0000 </r>
       <r>   -47.3033     0.0000     6.0000 </r>
       <r>   -47.1205     0.0000     6.0000 </r>
       <r>   -46.9377     0.0000     6.0000 </r>
       <r>   -46.7549     0.0000     6.0000 </r>
       <r>   -46.5721     0.0000     6.0000 </r>
       <r>   -46.3893     0.0000     6.0000 </r>
       <r>   -46.2065     0.0000     6.0000 </r>
       <r>   -46.0237     0.0000     6.0000 </r>
       <r>   -45.8409     0.0000     6.0000 </r>
       <r>   -45.6581     0.0000     6.0000 </r>
       <r>   -45.4753     0.0000     6.0000 </r>
       <r>   -45.2925     0.0000     6.0000 </r>
       <r>   -45.1097     0.0000     6.0000 </r>
       <r>   -44.9269     0.0000     6.0000 </r>
       <r>   -44.7441     0.0000     6.0000 </r>
       <r>   -44.5613     0.0000     6.0000 </r>
       <r>   -44.3785     0.0000     6.0000 </r>
       <r>   -44.1957     0.0000     6.0000 </r>
       <r>   -44.0129     0.0000     6.0000 </r>
       <r>   -43.8301     0.0000     6.0000 </r>
       <r>   -43.6473     0.0000     6.0000 </r>
       <r>   -43.4645     0.0000     6.0000 </r>
       <r>   -43.2817     0.0000     6.0000 </r>
       <r>   -43.0989     0.0000     6.0000 </r>
       <r>   -42.9161     0.0000     6.0000 </r>
       <r>   -42.7333     0.0000     6.0000 </r>
       <r>   -42.5505     0.0000     6.0000 </r>
       <r>   -42.3677     0.0000     6.0000 </r>
       <r>   -42.1849     0.0000     6.0000 </r>
       <r>   -42.0021     0.0000     6.0000 </r>
       <r>   -41.8193     0.0000     6.0000 </r>
       <r>   -41.6365     0.0000     6.0000 </r>
       <r>   -41.4537     0.0000     6.0000 </r>
       <r>   -41.2709     0.0000     6.0000 </r>
       <r>   -41.0881     0.0000     6.0000 </r>
       <r>   -40.9053     0.0000     6.0000 </r>
       <r>   -40.7225     0.0000     6.0000 </r>
       <r>   -40.5397     0.0000     6.0000 </r>
       <r>   -40.3569     0.0000     6.0000 </r>
       <r>   -40.1741     0.0000     6.0000 </r>
       <r>   -39.9913     0.0000     6.0000 </r>
       <r>   -39.8085     0.0000     6.0000 </r>
       <r>   -39.6257     0.0000     6.0000 </r>
       <r>   -39.4429     0.0000     6.0000 </r>
       <r>   -39.2601     0.0000     6.0000 </r>
       <r>   -39.0773     0.0000     6.0000 </r>
       <r>   -38.8945     0.0000     6.0000 </r>
       <r>   -38.7117     0.0000     6.0000 </r>
       <r>   -38.5289     0.0000     6.0000 </r>
       <r>   -38.3461     0.0000     6.0000 </r>
       <r>   -38.1633     0.0000     6.0000 </r>
       <r>   -37.9805     0.0000     6.0000 </r>
       <r>   -37.7977     0.0000     6.0000 </r>
       <r>   -37.6149     0.0000     6.0000 </r>
       <r>   -37.4321     0.0000     6.0000 </r>
       <r>   -37.2493     0.0000     6.0000 </r>
       <r>   -37.0665     0.0000     6.0000 </r>
       <r>   -36.8837     0.0000     6.0000 </r>
       <r>   -36.7009     0.0000     6.0000 </r>
       <r>   -36.5181     0.0000     6.0000 </r>
       <r>   -36.3353     0.0000     6.0000 </r>
       <r>   -36.1525     0.0000     6.0000 </r>
       <r>   -35.9697     0.0000     6.0000 </r>
       <r>   -35.7869     0.0000     6.0000 </r>
       <r>   -35.6041     0.0000     6.0000 </r>
       <r>   -35.4213     0.0000     6.0000 </r>
       <r>   -35.2385     0.0000     6.0000 </r>
       <r>   -35.0557     0.0000     6.0000 </r>
       <r>   -34.8729     0.0000     6.0000 </r>
       <r>   -34.6901     0.0000     6.0000 </r>
       <r>   -34.5073     0.0000     6.0000 </r>
       <r>   -34.3245     0.0000     6.0000 </r>
       <r>   -34.1417     0.0000     6.0000 </r>
       <r>   -33.9589     0.0000     6.0000 </r>
       <r>   -33.7761     0.0000     6.0000 </r>
       <r>   -33.5933     0.0000     6.0000 </r>
       <r>   -33.4105     0.0000     6.0000 </r>
       <r>   -33.2277     0.0000     6.0000 </r>
       <r>   -33.0449     0.0000     6.0000 </r>
       <r>   -32.8621     0.0000     6.0000 </r>
       <r>   -32.6793     0.0000     6.0000 </r>
       <r>   -32.4965     0.0000     6.0000 </r>
       <r>   -32.3137     0.0000     6.0000 </r>
       <r>   -32.1309     0.0000     6.0000 </r>
       <r>   -31.9481     0.0000     6.0000 </r>
       <r>   -31.7653     0.0000     6.0000 </r>
       <r>   -31.5825     0.0000     6.0000 </r>
       <r>   -31.3997     0.0000     6.0000 </r>
       <r>   -31.2169     0.0000     6.0000 </r>
       <r>   -31.0341     0.0000     6.0000 </r>
       <r>   -30.8513     0.0000     6.0000 </r>
       <r>   -30.6685     0.0000     6.0000 </r>
       <r>   -30.4857     0.0000     6.0000 </r>
       <r>   -30.3029     0.0000     6.0000 </r>
       <r>   -30.1201     0.0000     6.0000 </r>
       <r>   -29.9373     0.0000     6.0000 </r>
       <r>   -29.7545     0.0000     6.0000 </r>
       <r>   -29.5717     0.0000     6.0000 </r>
       <r>   -29.3889     0.0000     6.0000 </r>
       <r>   -29.2061    10.9409     8.0000 </r>
       <r>   -29.0233     0.0000     8.0000 </r>
       <r>   -28.8405     0.0000     8.0000 </r>
       <r>   -28.6577     0.0000     8.0000 </r>
       <r>   -28.4749     0.0000     8.0000 </r>
       <r>   -28.2921     0.0000     8.0000 </r>
       <r>   -28.1093     0.0000     8.0000 </r>
       <r>   -27.9265     9.0687     9.6578 </r>
       <r>   -27.7437     0.0000    10.0000 </r>
       <r>   -27.5609     0.0000    10.0000 </r>
       <r>   -27.3781     0.0000    10.0000 </r>
       <r>   -27.1953     0.0000    10.0000 </r>
       <r>   -27.0125     0.0000    10.0000 </r>
       <r>   -26.8297    10.9409    12.0000 </r>
       <r>   -26.6469     3.1088    12.5683 </r>
       <r>   -26.4641     0.0000    14.0000 </r>
       <r>   -26.2813     0.0003    14.0001 </r>
       <r>   -26.0985    10.9409    18.0000 </r>
       <r>   -25.9157     0.0000    18.0000 </r>
       <r>   -25.7329     0.0000    18.0000 </r>
       <r>   -25.5501     0.0000    18.0000 </r>
       <r>   -25.3673     0.0000    18.0000 </r>
       <r>   -25.1845     0.0000    18.0000 </r>
       <r>   -25.0017     0.0000    18.0000 </r>
       <r>   -24.8189     0.0000    18.0000 </r>
       <r>   -24.6361     0.0000    18.0000 </r>
       <r>   -24.4533     0.0000    18.0000 </r>
       <r>   -24.2705     0.0000    18.0000 </r>
       <r>   -24.0877     0.0000    18.0000 </r>
       <r>   -23.9049     0.0000    18.0000 </r>
       <r>   -23.7221     0.0000    18.0000 </r>
       <r>   -23.5393     0.0000    18.0000 </r>
       <r>   -23.3565    10.9409    20.0000 </r>
       <r>   -23.1737     0.0000    22.0000 </r>
       <r>   -22.9909     0.0000    22.0000 </r>
       <r>   -22.8081     0.0000    22.0000 </r>
       <r>   -22.6253     0.0000    22.0000 </r>
       <r>   -22.4425    11.4390    24.0911 </r>
       <r>   -22.2597    10.9409    28.0000 </r>
       <r>   -22.0769    10.9409    32.0000 </r>
       <r>   -21.8941     0.0000    32.0000 </r>
       <r>   -21.7113     0.0000    32.0000 </r>
       <r>   -21.5285     5.9452    33.0868 </r>
       <r>   -21.3457     0.0000    34.0000 </r>
       <r>   -21.1629    10.9402    35.9999 </r>
       <r>   -20.9801     0.0000    36.0000 </r>
       <r>   -20.7973     8.3044    37.5181 </r>
       <r>   -20.6145     0.0000    38.0000 </r>
       <r>   -20.4317     0.0000    38.0000 </r>
       <r>   -20.2489     0.0000    38.0000 </r>
       <r>   -20.0661     0.0000    38.0000 </r>
       <r>   -19.8833     0.0000    38.0000 </r>
       <r>   -19.7005     0.0000    38.0000 </r>
       <r>   -19.5177    10.9409    40.0000 </r>
       <r>   -19.3349    10.0734    41.8414 </r>
       <r>   -19.1521     0.0000    42.0000 </r>
       <r>   -18.9693     0.0000    42.0000 </r>
       <r>   -18.7865     0.0000    42.0000 </r>
       <r>   -18.6037     0.0000    44.0000 </r>
       <r>   -18.4209    10.9409    46.0000 </r>
       <r>   -18.2381     0.0000    46.0000 </r>
       <r>   -18.0553     0.0000    48.0000 </r>
       <r>   -17.8725    21.8813    51.9999 </r>
       <r>   -17.6897     9.8556    53.8016 </r>
       <r>   -17.5069     0.0000    56.0000 </r>
       <r>   -17.3241     0.6200    56.1133 </r>
       <r>   -17.1413     0.0000    58.0000 </r>
       <r>   -16.9585     0.0805    58.0147 </r>
       <r>   -16.7757     0.0000    60.0000 </r>
       <r>   -16.5929     0.0000    62.0000 </r>
       <r>   -16.4101     0.0000    62.0000 </r>
       <r>   -16.2273     0.0000    62.0000 </r>
       <r>   -16.0445     0.0000    62.0000 </r>
       <r>   -15.8617    10.9409    64.0000 </r>
       <r>   -15.6789    10.9409    66.0000 </r>
       <r>   -15.4961     0.0000    66.0000 </r>
       <r>   -15.3133    10.9413    68.0001 </r>
       <r>   -15.1305     0.0000    70.0000 </r>
       <r>   -14.9477     0.0000    70.0000 </r>
       <r>   -14.7649    21.5272    73.9352 </r>
       <r>   -14.5821     0.0000    76.0000 </r>
       <r>   -14.3993     0.0154    76.0028 </r>
       <r>   -14.2165     0.0495    78.0090 </r>
       <r>   -14.0337    10.9409    84.0000 </r>
       <r>   -13.8509    10.9409    88.0000 </r>
       <r>   -13.6681     0.0000    90.0000 </r>
       <r>   -13.4853     0.4072    92.0744 </r>
       <r>   -13.3025    10.9409    96.0000 </r>
       <r>   -13.1197     2.9309    98.5358 </r>
       <r>   -12.9369     0.0000   100.0000 </r>
       <r>   -12.7541    10.9409   106.0000 </r>
       <r>   -12.5713    10.9408   110.0000 </r>
       <r>   -12.3885    10.9409   112.0000 </r>
       <r>   -12.2057     0.3486   114.0637 </r>
       <r>   -12.0229    10.9303   119.9981 </r>
       <r>   -11.8401     0.0000   120.0000 </r>
       <r>   -11.6573     0.3637   120.0665 </r>
       <r>   -11.4745    10.9409   124.0000 </r>
       <r>   -11.2917    10.9027   125.9930 </r>
       <r>   -11.1089    10.9410   128.0000 </r>
       <r>   -10.9261     0.0000   130.0000 </r>
       <r>   -10.7433    21.8819   134.0000 </r>
       <r>   -10.5605    10.9397   137.9998 </r>
       <r>   -10.3777     0.0000   140.0000 </r>
       <r>   -10.1949     0.0002   140.0000 </r>
       <r>   -10.0121    10.9409   144.0000 </r>
       <r>    -9.8293    10.9426   146.0003 </r>
       <r>    -9.6465     0.0000   150.0000 </r>
       <r>    -9.4637     0.0003   152.0000 </r>
       <r>    -9.2809     0.0000   154.0000 </r>
       <r>    -9.0981     0.0000   154.0000 </r>
       <r>    -8.9153    10.9409   156.0000 </r>
       <r>    -8.7325     0.0000   158.0000 </r>
       <r>    -8.5497     0.0000   158.0000 </r>
       <r>    -8.3669    10.3143   159.8854 </r>
       <r>    -8.1841     0.0000   160.0000 </r>
       <r>    -8.0014     0.0000   160.0000 </r>
       <r>    -7.8186     0.0000   160.0000 </r>
       <r>    -7.6358     0.0000   160.0000 </r>
       <r>    -7.4530     0.0000   162.0000 </r>
       <r>    -7.2702    10.9409   164.0000 </r>
       <r>    -7.0874     0.0000   166.0000 </r>
       <r>    -6.9046     0.0000   166.0000 </r>
       <r>    -6.7218     0.0000   166.0000 </r>
       <r>    -6.5390     0.0000   166.0000 </r>
       <r>    -6.3562     0.0000   166.0000 </r>
       <r>    -6.1734     0.0000   166.0000 </r>
       <r>    -5.9906     0.0000   166.0000 </r>
       <r>    -5.8078     0.0000   166.0000 </r>
       <r>    -5.6250     0.0001   166.0000 </r>
       <r>    -5.4422     0.0000   168.0000 </r>
       <r>    -5.2594     0.0000   170.0000 </r>
       <r>    -5.0766     0.0000   170.0000 </r>
       <r>    -4.8938    10.9409   172.0000 </r>
       <r>    -4.7110     0.0000   172.0000 </r>
       <r>    -4.5282     0.0000   172.0000 </r>
       <r>    -4.3454     4.9608   172.9068 </r>
       <r>    -4.1626    10.9409   176.0000 </r>
       <r>    -3.9798     0.5924   178.1083 </r>
       <r>    -3.7970     0.0000   182.0000 </r>
       <r>    -3.6142     0.0001   182.0000 </r>
       <r>    -3.4314     0.0000   184.0000 </r>
       <r>    -3.2486     5.3453   186.9771 </r>
       <r>    -3.0658     0.0000   188.0000 </r>
       <r>    -2.8830     0.0000   190.0000 </r>
       <r>    -2.7002    10.8995   191.9924 </r>
       <r>    -2.5174     0.0000   192.0000 </r>
       <r>    -2.3346     0.0000   192.0000 </r>
       <r>    -2.1518     0.0000   192.0000 </r>
       <r>    -1.9690    10.8717   193.9873 </r>
       <r>    -1.7862     0.0000   194.0000 </r>
       <r>    -1.6034    10.9409   198.0000 </r>
       <r>    -1.4206     0.0009   198.0002 </r>
       <r>    -1.2378    10.9494   202.0016 </r>
       <r>    -1.0550    10.9409   206.0000 </r>
       <r>    -0.8722    10.9409   210.0000 </r>
       <r>    -0.6894    20.3402   213.7182 </r>
       <r>    -0.5066    10.2817   217.8795 </r>
       <r>    -0.3238     0.5132   222.0938 </r>
       <r>    -0.1410    10.9409   228.0000 </r>
       <r>     0.0418    11.0182   232.0141 </r>
       <r>     0.2246    10.9409   238.0000 </r>
       <r>     0.4074    11.1850   244.0446 </r>
       <r>     0.5902    19.3536   251.5378 </r>
       <r>     0.7730     0.0000   256.0000 </r>
       <r>     0.9558     0.0000   256.0000 </r>
       <r>     1.1386     0.0000   256.0000 </r>
       <r>     1.3214     0.0000   256.0000 </r>
       <r>     1.5042     0.0000   256.0000 </r>
       <r>     1.6870     0.0000   256.0000 </r>
       <r>     1.8698     0.0000   256.0000 </r>
       <r>     2.0526     0.0000   256.0000 </r>
       <r>     2.2354     0.0000   256.0000 </r>
       <r>     2.4182     0.0000   256.0000 </r>
       <r>     2.6010     0.0000   256.0000 </r>
       <r>     2.7838     0.0000   256.0000 </r>
       <r>     2.9666     0.0000   256.0000 </r>
       <r>     3.1494     0.0000   256.0000 </r>
      </set>
     </set>
    </array>
   </total>
  </dos>
 </calculation>
 <structure name="finalpos" >
  <crystal>
   <varray name="basis" >
    <v>      20.00000000       0.00000000       0.00000000 </v>
    <v>       0.00000000      20.00000000       0.00000000 </v>
    <v>       0.00000000       0.00000000      20.00000000 </v>
   </varray>
   <i name="volume">   8000.00000000 </i>
   <varray name="rec_basis" >
    <v>       0.05000000       0.00000000       0.00000000 </v>
    <v>       0.00000000       0.05000000       0.00000000 </v>
    <v>       0.00000000       0.00000000       0.05000000 </v>
   </varray>
  </crystal>
  <varray name="positions" >
   <v>       0.63257913       0.55363620       0.48652424 </v>
   <v>       0.43793752       0.56561110       0.32757008 </v>
   <v>       0.45581208       0.52423376       0.38051465 </v>
   <v>       0.47372925       0.61530131       0.44986522 </v>
   <v>       0.45595175       0.65963312       0.39935201 </v>
   <v>       0.43785737       0.63472201       0.33675972 </v>
   <v>       0.52307882       0.32955005       0.67474498 </v>
   <v>       0.49710163       0.37190466       0.62618823 </v>
   <v>       0.60227374       0.41933300       0.60593616 </v>
   <v>       0.63096398       0.37761922       0.65422416 </v>
   <v>       0.73964927       0.52855915       0.53463181 </v>
   <v>       0.70082162       0.56612858       0.49044049 </v>
   <v>       0.29334713       0.47671938       0.56830116 </v>
   <v>       0.63952130       0.46927713       0.56732841 </v>
   <v>       0.70843899       0.47974495       0.57314689 </v>
   <v>       0.59134754       0.33224398       0.68903016 </v>
   <v>       0.36211554       0.48866484       0.56417415 </v>
   <v>       0.40790931       0.62211625       0.69058213 </v>
   <v>       0.47619960       0.62606623       0.67660612 </v>
   <v>       0.50295190       0.58590820       0.62668073 </v>
   <v>       0.39825425       0.53800137       0.60426081 </v>
   <v>       0.36904589       0.57756069       0.65398228 </v>
   <v>       0.37289802       0.40579857       0.48223443 </v>
   <v>       0.30486503       0.39173492       0.48443166 </v>
   <v>       0.26422003       0.42785518       0.52821594 </v>
   <v>       0.48989745       0.29510618       0.70074864 </v>
   <v>       0.61334240       0.29968355       0.72673159 </v>
   <v>       0.68424189       0.38076917       0.66478776 </v>
   <v>       0.54225374       0.36233861       0.46129841 </v>
   <v>       0.31579090       0.57306911       0.66420366 </v>
   <v>       0.44416348       0.37118871       0.61364770 </v>
   <v>       0.42392665       0.66833230       0.29622671 </v>
   <v>       0.45642762       0.71313270       0.40950260 </v>
   <v>       0.48809132       0.63358802       0.49907234 </v>
   <v>       0.56912778       0.41808713       0.41480476 </v>
   <v>       0.73767440       0.44963919       0.60776512 </v>
   <v>       0.72277620       0.60481012       0.45904817 </v>
   <v>       0.45570253       0.47012894       0.37468790 </v>
   <v>       0.40614333       0.37888556       0.44852541 </v>
   <v>       0.28443799       0.35306162       0.45202062 </v>
   <v>       0.79326502       0.53703787       0.53892527 </v>
   <v>       0.55589708       0.58769132       0.61440612 </v>
   <v>       0.42412006       0.54328620       0.27986105 </v>
   <v>       0.50894741       0.65984570       0.70400156 </v>
   <v>       0.26265982       0.50568523       0.60265428 </v>
   <v>       0.21072272       0.41813760       0.53105039 </v>
   <v>       0.60090654       0.58197914       0.45254259 </v>
   <v>       0.38544357       0.65296704       0.72941133 </v>
   <v>       0.47424490       0.54794204       0.44140236 </v>
   <v>       0.40180479       0.45306079       0.52108436 </v>
   <v>       0.53520702       0.41608490       0.59173240 </v>
   <v>       0.46544808       0.54254992       0.59041194 </v>
   <v>       0.60138410       0.50650621       0.52397638 </v>
   <v>       0.53073984       0.40562607       0.44215451 </v>
   <v>       0.50088568       0.48087016       0.51934246 </v>
  </varray>
  <varray name="selective"  type="logical" >
   <v type="logical" >  T  T  T </v>
   <v type="logical" >  T  T  T </v>
   <v type="logical" >  T  T  T </v>
   <v type="logical" >  T  T  T </v>
   <v type="logical" >  T  T  T </v>
   <v type="logical" >  T  T  T </v>
   <v type="logical" >  T  T  T </v>
   <v type="logical" >  T  T  T </v>
   <v type="logical" >  T  T  T </v>
   <v type="logical" >  T  T  T </v>
   <v type="logical" >  T  T  T </v>
   <v type="logical" >  T  T  T </v>
   <v type="logical" >  T  T  T </v>
   <v type="logical" >  T  T  T </v>
   <v type="logical" >  T  T  T </v>
   <v type="logical" >  T  T  T </v>
   <v type="logical" >  T  T  T </v>
   <v type="logical" >  T  T  T </v>
   <v type="logical" >  T  T  T </v>
   <v type="logical" >  T  T  T </v>
   <v type="logical" >  T  T  T </v>
   <v type="logical" >  T  T  T </v>
   <v type="logical" >  T  T  T </v>
   <v type="logical" >  T  T  T </v>
   <v type="logical" >  T  T  T </v>
   <v type="logical" >  T  T  T </v>
   <v type="logical" >  T  T  T </v>
   <v type="logical" >  T  T  T </v>
   <v type="logical" >  T  T  T </v>
   <v type="logical" >  T  T  T </v>
   <v type="logical" >  T  T  T </v>
   <v type="logical" >  T  T  T </v>
   <v type="logical" >  T  T  T </v>
   <v type="logical" >  T  T  T </v>
   <v type="logical" >  T  T  T </v>
   <v type="logical" >  T  T  T </v>
   <v type="logical" >  T  T  T </v>
   <v type="logical" >  T  T  T </v>
   <v type="logical" >  T  T  T </v>
   <v type="logical" >  T  T  T </v>
   <v type="logical" >  T  T  T </v>
   <v type="logical" >  T  T  T </v>
   <v type="logical" >  T  T  T </v>
   <v type="logical" >  T  T  T </v>
   <v type="logical" >  T  T  T </v>
   <v type="logical" >  T  T  T </v>
   <v type="logical" >  T  T  T </v>
   <v type="logical" >  T  T  T </v>
   <v type="logical" >  T  T  T </v>
   <v type="logical" >  T  T  T </v>
   <v type="logical" >  T  T  T </v>
   <v type="logical" >  T  T  T </v>
   <v type="logical" >  T  T  T </v>
   <v type="logical" >  T  T  T </v>
   <v type="logical" >  T  T  T </v>
  </varray>
  <nose>
   <v>      -3.00000000       0.00000000       0.00010000       0.00010000 </v>
  </nose>
 </structure>
</modeling>
