  55  55   0   0
  0.1454545E+03  0.2000000E-08  0.2000000E-08  0.2000000E-08  0.5000000E-15
  1.000000000000000E-004
  CAR 
 c2_oh2_ruthenium_mol                    
      3.21492380    -51.54877372  301     -6.96199666      1.00000000
    -51.549  0.0000E+00  0.0000E+00  0.0000E+00  0.0000E+00
    -51.366  0.0000E+00  0.0000E+00  0.0000E+00  0.0000E+00
    -51.184  0.0000E+00  0.0000E+00  0.0000E+00  0.0000E+00
    -51.001  0.0000E+00  0.0000E+00  0.0000E+00  0.0000E+00
    -50.819  0.0000E+00  0.0000E+00  0.0000E+00  0.0000E+00
    -50.636  0.0000E+00  0.0000E+00  0.0000E+00  0.0000E+00
    -50.453  0.0000E+00  0.0000E+00  0.0000E+00  0.0000E+00
    -50.271  0.0000E+00  0.0000E+00  0.0000E+00  0.0000E+00
    -50.088  0.0000E+00  0.0000E+00  0.0000E+00  0.0000E+00
    -49.906  0.0000E+00  0.0000E+00  0.0000E+00  0.0000E+00
    -49.723  0.0000E+00  0.0000E+00  0.0000E+00  0.0000E+00
    -49.541  0.0000E+00  0.0000E+00  0.0000E+00  0.0000E+00
    -49.358  0.0000E+00  0.0000E+00  0.0000E+00  0.0000E+00
    -49.176  0.0000E+00  0.0000E+00  0.0000E+00  0.0000E+00
    -48.993  0.1096E+02  0.1096E+02  0.2000E+01  0.2000E+01
    -48.811  0.0000E+00  0.0000E+00  0.4000E+01  0.4000E+01
    -48.628  0.1096E+02  0.1096E+02  0.6000E+01  0.6000E+01
    -48.445  0.0000E+00  0.0000E+00  0.6000E+01  0.6000E+01
    -48.263  0.0000E+00  0.0000E+00  0.6000E+01  0.6000E+01
    -48.080  0.0000E+00  0.0000E+00  0.6000E+01  0.6000E+01
    -47.898  0.0000E+00  0.0000E+00  0.6000E+01  0.6000E+01
    -47.715  0.0000E+00  0.0000E+00  0.6000E+01  0.6000E+01
    -47.533  0.0000E+00  0.0000E+00  0.6000E+01  0.6000E+01
    -47.350  0.0000E+00  0.0000E+00  0.6000E+01  0.6000E+01
    -47.168  0.0000E+00  0.0000E+00  0.6000E+01  0.6000E+01
    -46.985  0.0000E+00  0.0000E+00  0.6000E+01  0.6000E+01
    -46.803  0.0000E+00  0.0000E+00  0.6000E+01  0.6000E+01
    -46.620  0.0000E+00  0.0000E+00  0.6000E+01  0.6000E+01
    -46.437  0.0000E+00  0.0000E+00  0.6000E+01  0.6000E+01
    -46.255  0.0000E+00  0.0000E+00  0.6000E+01  0.6000E+01
    -46.072  0.0000E+00  0.0000E+00  0.6000E+01  0.6000E+01
    -45.890  0.0000E+00  0.0000E+00  0.6000E+01  0.6000E+01
    -45.707  0.0000E+00  0.0000E+00  0.6000E+01  0.6000E+01
    -45.525  0.0000E+00  0.0000E+00  0.6000E+01  0.6000E+01
    -45.342  0.0000E+00  0.0000E+00  0.6000E+01  0.6000E+01
    -45.160  0.0000E+00  0.0000E+00  0.6000E+01  0.6000E+01
    -44.977  0.0000E+00  0.0000E+00  0.6000E+01  0.6000E+01
    -44.795  0.0000E+00  0.0000E+00  0.6000E+01  0.6000E+01
    -44.612  0.0000E+00  0.0000E+00  0.6000E+01  0.6000E+01
    -44.429  0.0000E+00  0.0000E+00  0.6000E+01  0.6000E+01
    -44.247  0.0000E+00  0.0000E+00  0.6000E+01  0.6000E+01
    -44.064  0.0000E+00  0.0000E+00  0.6000E+01  0.6000E+01
    -43.882  0.0000E+00  0.0000E+00  0.6000E+01  0.6000E+01
    -43.699  0.0000E+00  0.0000E+00  0.6000E+01  0.6000E+01
    -43.517  0.0000E+00  0.0000E+00  0.6000E+01  0.6000E+01
    -43.334  0.0000E+00  0.0000E+00  0.6000E+01  0.6000E+01
    -43.152  0.0000E+00  0.0000E+00  0.6000E+01  0.6000E+01
    -42.969  0.0000E+00  0.0000E+00  0.6000E+01  0.6000E+01
    -42.787  0.0000E+00  0.0000E+00  0.6000E+01  0.6000E+01
    -42.604  0.0000E+00  0.0000E+00  0.6000E+01  0.6000E+01
    -42.421  0.0000E+00  0.0000E+00  0.6000E+01  0.6000E+01
    -42.239  0.0000E+00  0.0000E+00  0.6000E+01  0.6000E+01
    -42.056  0.0000E+00  0.0000E+00  0.6000E+01  0.6000E+01
    -41.874  0.0000E+00  0.0000E+00  0.6000E+01  0.6000E+01
    -41.691  0.0000E+00  0.0000E+00  0.6000E+01  0.6000E+01
    -41.509  0.0000E+00  0.0000E+00  0.6000E+01  0.6000E+01
    -41.326  0.0000E+00  0.0000E+00  0.6000E+01  0.6000E+01
    -41.144  0.0000E+00  0.0000E+00  0.6000E+01  0.6000E+01
    -40.961  0.0000E+00  0.0000E+00  0.6000E+01  0.6000E+01
    -40.779  0.0000E+00  0.0000E+00  0.6000E+01  0.6000E+01
    -40.596  0.0000E+00  0.0000E+00  0.6000E+01  0.6000E+01
    -40.413  0.0000E+00  0.0000E+00  0.6000E+01  0.6000E+01
    -40.231  0.0000E+00  0.0000E+00  0.6000E+01  0.6000E+01
    -40.048  0.0000E+00  0.0000E+00  0.6000E+01  0.6000E+01
    -39.866  0.0000E+00  0.0000E+00  0.6000E+01  0.6000E+01
    -39.683  0.0000E+00  0.0000E+00  0.6000E+01  0.6000E+01
    -39.501  0.0000E+00  0.0000E+00  0.6000E+01  0.6000E+01
    -39.318  0.0000E+00  0.0000E+00  0.6000E+01  0.6000E+01
    -39.136  0.0000E+00  0.0000E+00  0.6000E+01  0.6000E+01
    -38.953  0.0000E+00  0.0000E+00  0.6000E+01  0.6000E+01
    -38.771  0.0000E+00  0.0000E+00  0.6000E+01  0.6000E+01
    -38.588  0.0000E+00  0.0000E+00  0.6000E+01  0.6000E+01
    -38.405  0.0000E+00  0.0000E+00  0.6000E+01  0.6000E+01
    -38.223  0.0000E+00  0.0000E+00  0.6000E+01  0.6000E+01
    -38.040  0.0000E+00  0.0000E+00  0.6000E+01  0.6000E+01
    -37.858  0.0000E+00  0.0000E+00  0.6000E+01  0.6000E+01
    -37.675  0.0000E+00  0.0000E+00  0.6000E+01  0.6000E+01
    -37.493  0.0000E+00  0.0000E+00  0.6000E+01  0.6000E+01
    -37.310  0.0000E+00  0.0000E+00  0.6000E+01  0.6000E+01
    -37.128  0.0000E+00  0.0000E+00  0.6000E+01  0.6000E+01
    -36.945  0.0000E+00  0.0000E+00  0.6000E+01  0.6000E+01
    -36.763  0.0000E+00  0.0000E+00  0.6000E+01  0.6000E+01
    -36.580  0.0000E+00  0.0000E+00  0.6000E+01  0.6000E+01
    -36.397  0.0000E+00  0.0000E+00  0.6000E+01  0.6000E+01
    -36.215  0.0000E+00  0.0000E+00  0.6000E+01  0.6000E+01
    -36.032  0.0000E+00  0.0000E+00  0.6000E+01  0.6000E+01
    -35.850  0.0000E+00  0.0000E+00  0.6000E+01  0.6000E+01
    -35.667  0.0000E+00  0.0000E+00  0.6000E+01  0.6000E+01
    -35.485  0.0000E+00  0.0000E+00  0.6000E+01  0.6000E+01
    -35.302  0.0000E+00  0.0000E+00  0.6000E+01  0.6000E+01
    -35.120  0.0000E+00  0.0000E+00  0.6000E+01  0.6000E+01
    -34.937  0.0000E+00  0.0000E+00  0.6000E+01  0.6000E+01
    -34.755  0.0000E+00  0.0000E+00  0.6000E+01  0.6000E+01
    -34.572  0.0000E+00  0.0000E+00  0.6000E+01  0.6000E+01
    -34.389  0.0000E+00  0.0000E+00  0.6000E+01  0.6000E+01
    -34.207  0.0000E+00  0.0000E+00  0.6000E+01  0.6000E+01
    -34.024  0.0000E+00  0.0000E+00  0.6000E+01  0.6000E+01
    -33.842  0.0000E+00  0.0000E+00  0.6000E+01  0.6000E+01
    -33.659  0.0000E+00  0.0000E+00  0.6000E+01  0.6000E+01
    -33.477  0.0000E+00  0.0000E+00  0.6000E+01  0.6000E+01
    -33.294  0.0000E+00  0.0000E+00  0.6000E+01  0.6000E+01
    -33.112  0.0000E+00  0.0000E+00  0.6000E+01  0.6000E+01
    -32.929  0.0000E+00  0.0000E+00  0.6000E+01  0.6000E+01
    -32.747  0.0000E+00  0.0000E+00  0.6000E+01  0.6000E+01
    -32.564  0.0000E+00  0.0000E+00  0.6000E+01  0.6000E+01
    -32.381  0.0000E+00  0.0000E+00  0.6000E+01  0.6000E+01
    -32.199  0.0000E+00  0.0000E+00  0.6000E+01  0.6000E+01
    -32.016  0.0000E+00  0.0000E+00  0.6000E+01  0.6000E+01
    -31.834  0.0000E+00  0.0000E+00  0.6000E+01  0.6000E+01
    -31.651  0.0000E+00  0.0000E+00  0.6000E+01  0.6000E+01
    -31.469  0.0000E+00  0.0000E+00  0.6000E+01  0.6000E+01
    -31.286  0.0000E+00  0.0000E+00  0.6000E+01  0.6000E+01
    -31.104  0.0000E+00  0.0000E+00  0.6000E+01  0.6000E+01
    -30.921  0.0000E+00  0.0000E+00  0.6000E+01  0.6000E+01
    -30.739  0.0000E+00  0.0000E+00  0.6000E+01  0.6000E+01
    -30.556  0.0000E+00  0.0000E+00  0.6000E+01  0.6000E+01
    -30.373  0.0000E+00  0.0000E+00  0.6000E+01  0.6000E+01
    -30.191  0.0000E+00  0.0000E+00  0.6000E+01  0.6000E+01
    -30.008  0.0000E+00  0.0000E+00  0.6000E+01  0.6000E+01
    -29.826  0.0000E+00  0.0000E+00  0.6000E+01  0.6000E+01
    -29.643  0.0000E+00  0.0000E+00  0.6000E+01  0.6000E+01
    -29.461  0.0000E+00  0.0000E+00  0.6000E+01  0.6000E+01
    -29.278  0.0000E+00  0.0000E+00  0.6000E+01  0.6000E+01
    -29.096  0.0000E+00  0.0000E+00  0.8000E+01  0.8000E+01
    -28.913  0.0000E+00  0.0000E+00  0.8000E+01  0.8000E+01
    -28.731  0.0000E+00  0.0000E+00  0.8000E+01  0.8000E+01
    -28.548  0.0000E+00  0.0000E+00  0.8000E+01  0.8000E+01
    -28.365  0.0000E+00  0.0000E+00  0.8000E+01  0.8000E+01
    -28.183  0.0000E+00  0.0000E+00  0.8000E+01  0.8000E+01
    -28.000  0.0000E+00  0.0000E+00  0.8000E+01  0.8000E+01
    -27.818  0.0000E+00  0.0000E+00  0.8000E+01  0.8000E+01
    -27.635  0.9731E-14  0.9731E-14  0.8000E+01  0.8000E+01
    -27.453  0.0000E+00  0.0000E+00  0.1000E+02  0.1000E+02
    -27.270  0.0000E+00  0.0000E+00  0.1000E+02  0.1000E+02
    -27.088  0.0000E+00  0.0000E+00  0.1000E+02  0.1000E+02
    -26.905  0.0000E+00  0.0000E+00  0.1000E+02  0.1000E+02
    -26.723  0.0000E+00  0.0000E+00  0.1200E+02  0.1200E+02
    -26.540  0.0000E+00  0.0000E+00  0.1400E+02  0.1400E+02
    -26.357  0.0000E+00  0.0000E+00  0.1400E+02  0.1400E+02
    -26.175  0.8515E-12  0.8515E-12  0.1400E+02  0.1400E+02
    -25.992  0.0000E+00  0.0000E+00  0.1800E+02  0.1800E+02
    -25.810  0.0000E+00  0.0000E+00  0.1800E+02  0.1800E+02
    -25.627  0.0000E+00  0.0000E+00  0.1800E+02  0.1800E+02
    -25.445  0.0000E+00  0.0000E+00  0.1800E+02  0.1800E+02
    -25.262  0.0000E+00  0.0000E+00  0.1800E+02  0.1800E+02
    -25.080  0.0000E+00  0.0000E+00  0.1800E+02  0.1800E+02
    -24.897  0.0000E+00  0.0000E+00  0.1800E+02  0.1800E+02
    -24.715  0.0000E+00  0.0000E+00  0.1800E+02  0.1800E+02
    -24.532  0.0000E+00  0.0000E+00  0.1800E+02  0.1800E+02
    -24.349  0.0000E+00  0.0000E+00  0.1800E+02  0.1800E+02
    -24.167  0.1156E-09  0.1157E-09  0.1800E+02  0.1800E+02
    -23.984  0.0000E+00  0.0000E+00  0.2000E+02  0.2000E+02
    -23.802  0.0000E+00  0.0000E+00  0.2000E+02  0.2000E+02
    -23.619  0.0000E+00  0.0000E+00  0.2000E+02  0.2000E+02
    -23.437  0.0000E+00  0.0000E+00  0.2000E+02  0.2000E+02
    -23.254  0.0000E+00  0.0000E+00  0.2000E+02  0.2000E+02
    -23.072  0.3146E+00  0.3147E+00  0.2006E+02  0.2006E+02
    -22.889  0.0000E+00  0.0000E+00  0.2200E+02  0.2200E+02
    -22.707  0.1520E-10  0.1520E-10  0.2200E+02  0.2200E+02
    -22.524  0.0000E+00  0.0000E+00  0.2400E+02  0.2400E+02
    -22.341  0.1096E+02  0.1096E+02  0.2600E+02  0.2600E+02
    -22.159  0.4287E+01  0.4287E+01  0.2878E+02  0.2878E+02
    -21.976  0.6478E-01  0.6478E-01  0.3001E+02  0.3001E+02
    -21.794  0.0000E+00  0.0000E+00  0.3200E+02  0.3200E+02
    -21.611  0.0000E+00  0.0000E+00  0.3200E+02  0.3200E+02
    -21.429  0.0000E+00  0.0000E+00  0.3400E+02  0.3400E+02
    -21.246  0.0000E+00  0.0000E+00  0.3400E+02  0.3400E+02
    -21.064  0.7326E-05  0.7326E-05  0.3400E+02  0.3400E+02
    -20.881  0.0000E+00  0.0000E+00  0.3600E+02  0.3600E+02
    -20.699  0.1096E+02  0.1096E+02  0.3800E+02  0.3800E+02
    -20.516  0.0000E+00  0.0000E+00  0.3800E+02  0.3800E+02
    -20.333  0.0000E+00  0.0000E+00  0.3800E+02  0.3800E+02
    -20.151  0.0000E+00  0.0000E+00  0.3800E+02  0.3800E+02
    -19.968  0.0000E+00  0.0000E+00  0.3800E+02  0.3800E+02
    -19.786  0.0000E+00  0.0000E+00  0.3800E+02  0.3800E+02
    -19.603  0.1096E+02  0.1096E+02  0.4000E+02  0.4000E+02
    -19.421  0.6272E-08  0.6273E-08  0.4000E+02  0.4000E+02
    -19.238  0.0000E+00  0.0000E+00  0.4200E+02  0.4200E+02
    -19.056  0.0000E+00  0.0000E+00  0.4200E+02  0.4200E+02
    -18.873  0.0000E+00  0.0000E+00  0.4200E+02  0.4200E+02
    -18.691  0.8268E+01  0.8268E+01  0.4351E+02  0.4351E+02
    -18.508  0.0000E+00  0.0000E+00  0.4400E+02  0.4400E+02
    -18.325  0.0000E+00  0.0000E+00  0.4600E+02  0.4600E+02
    -18.143  0.0000E+00  0.0000E+00  0.4800E+02  0.4800E+02
    -17.960  0.1096E+02  0.1096E+02  0.5000E+02  0.5000E+02
    -17.778  0.9533E+00  0.9533E+00  0.5017E+02  0.5017E+02
    -17.595  0.8384E-02  0.8384E-02  0.5200E+02  0.5200E+02
    -17.413  0.0000E+00  0.0000E+00  0.5600E+02  0.5600E+02
    -17.230  0.1096E+02  0.1096E+02  0.5800E+02  0.5800E+02
    -17.048  0.0000E+00  0.0000E+00  0.5800E+02  0.5800E+02
    -16.865  0.8354E+01  0.8355E+01  0.5953E+02  0.5953E+02
    -16.683  0.5735E+00  0.5735E+00  0.6010E+02  0.6010E+02
    -16.500  0.0000E+00  0.0000E+00  0.6200E+02  0.6200E+02
    -16.317  0.0000E+00  0.0000E+00  0.6200E+02  0.6200E+02
    -16.135  0.0000E+00  0.0000E+00  0.6200E+02  0.6200E+02
    -15.952  0.0000E+00  0.0000E+00  0.6200E+02  0.6200E+02
    -15.770  0.5261E-02  0.5261E-02  0.6400E+02  0.6400E+02
    -15.587  0.0000E+00  0.0000E+00  0.6600E+02  0.6600E+02
    -15.405  0.1096E+02  0.1096E+02  0.6800E+02  0.6800E+02
    -15.222  0.1711E-03  0.1711E-03  0.6800E+02  0.6800E+02
    -15.040  0.0000E+00  0.0000E+00  0.7000E+02  0.7000E+02
    -14.857  0.1096E+02  0.1096E+02  0.7200E+02  0.7200E+02
    -14.675  0.1280E+02  0.1280E+02  0.7434E+02  0.7434E+02
    -14.492  0.8749E+01  0.8749E+01  0.7760E+02  0.7760E+02
    -14.309  0.0000E+00  0.0000E+00  0.7800E+02  0.7800E+02
    -14.127  0.3746E-03  0.3746E-03  0.7800E+02  0.7800E+02
    -13.944  0.1855E+02  0.1855E+02  0.8539E+02  0.8539E+02
    -13.762  0.1922E+01  0.1922E+01  0.8835E+02  0.8835E+02
    -13.579  0.1096E+02  0.1096E+02  0.9200E+02  0.9200E+02
    -13.397  0.5493E+01  0.5493E+01  0.9300E+02  0.9300E+02
    -13.214  0.3489E-02  0.3489E-02  0.9600E+02  0.9600E+02
    -13.032  0.6082E-15  0.6082E-15  0.1000E+03  0.1000E+03
    -12.849  0.9974E+01  0.9974E+01  0.1038E+03  0.1038E+03
    -12.667  0.1095E+02  0.1095E+02  0.1060E+03  0.1060E+03
    -12.484  0.1096E+02  0.1096E+02  0.1100E+03  0.1100E+03
    -12.301  0.2972E+01  0.2972E+01  0.1125E+03  0.1125E+03
    -12.119  0.1096E+02  0.1096E+02  0.1180E+03  0.1180E+03
    -11.936  0.1096E+02  0.1096E+02  0.1200E+03  0.1200E+03
    -11.754  0.0000E+00  0.0000E+00  0.1200E+03  0.1200E+03
    -11.571  0.6562E+01  0.6562E+01  0.1212E+03  0.1212E+03
    -11.389  0.0000E+00  0.0000E+00  0.1240E+03  0.1240E+03
    -11.206  0.2160E+02  0.2160E+02  0.1279E+03  0.1279E+03
    -11.024  0.1625E+02  0.1625E+02  0.1310E+03  0.1310E+03
    -10.841  0.1137E-04  0.1137E-04  0.1320E+03  0.1320E+03
    -10.659  0.7132E+01  0.7132E+01  0.1353E+03  0.1353E+03
    -10.476  0.9015E+01  0.9015E+01  0.1376E+03  0.1376E+03
    -10.293  0.0000E+00  0.0000E+00  0.1400E+03  0.1400E+03
    -10.111  0.2189E-13  0.2189E-13  0.1400E+03  0.1400E+03
     -9.928  0.1097E+02  0.1097E+02  0.1440E+03  0.1440E+03
     -9.746  0.8568E+01  0.8568E+01  0.1476E+03  0.1476E+03
     -9.563  0.0000E+00  0.0000E+00  0.1520E+03  0.1520E+03
     -9.381  0.0000E+00  0.0000E+00  0.1520E+03  0.1520E+03
     -9.198  0.0000E+00  0.0000E+00  0.1540E+03  0.1540E+03
     -9.016  0.0000E+00  0.0000E+00  0.1560E+03  0.1560E+03
     -8.833  0.0000E+00  0.0000E+00  0.1560E+03  0.1560E+03
     -8.651  0.4162E+01  0.4162E+01  0.1568E+03  0.1568E+03
     -8.468  0.0000E+00  0.0000E+00  0.1580E+03  0.1580E+03
     -8.285  0.1096E+02  0.1096E+02  0.1600E+03  0.1600E+03
     -8.103  0.0000E+00  0.0000E+00  0.1600E+03  0.1600E+03
     -7.920  0.0000E+00  0.0000E+00  0.1600E+03  0.1600E+03
     -7.738  0.0000E+00  0.0000E+00  0.1600E+03  0.1600E+03
     -7.555  0.0000E+00  0.0000E+00  0.1600E+03  0.1600E+03
     -7.373  0.1096E+02  0.1096E+02  0.1620E+03  0.1620E+03
     -7.190  0.1096E+02  0.1096E+02  0.1640E+03  0.1640E+03
     -7.008  0.0000E+00  0.0000E+00  0.1660E+03  0.1660E+03
     -6.825  0.0000E+00  0.0000E+00  0.1660E+03  0.1660E+03
     -6.643  0.0000E+00  0.0000E+00  0.1660E+03  0.1660E+03
     -6.460  0.0000E+00  0.0000E+00  0.1660E+03  0.1660E+03
     -6.277  0.0000E+00  0.0000E+00  0.1660E+03  0.1660E+03
     -6.095  0.0000E+00  0.0000E+00  0.1660E+03  0.1660E+03
     -5.912  0.0000E+00  0.0000E+00  0.1660E+03  0.1660E+03
     -5.730  0.4816E-04  0.4816E-04  0.1660E+03  0.1660E+03
     -5.547  0.0000E+00  0.0000E+00  0.1680E+03  0.1680E+03
     -5.365  0.4926E-13  0.4926E-13  0.1680E+03  0.1680E+03
     -5.182  0.0000E+00  0.0000E+00  0.1700E+03  0.1700E+03
     -5.000  0.0000E+00  0.0000E+00  0.1700E+03  0.1700E+03
     -4.817  0.0000E+00  0.0000E+00  0.1720E+03  0.1720E+03
     -4.635  0.0000E+00  0.0000E+00  0.1720E+03  0.1720E+03
     -4.452  0.4874E-04  0.4873E-04  0.1720E+03  0.1720E+03
     -4.269  0.0000E+00  0.0000E+00  0.1740E+03  0.1740E+03
     -4.087  0.1096E+02  0.1096E+02  0.1760E+03  0.1760E+03
     -3.904  0.1080E+02  0.1080E+02  0.1800E+03  0.1800E+03
     -3.722  0.0000E+00  0.0000E+00  0.1820E+03  0.1820E+03
     -3.539  0.0000E+00  0.0000E+00  0.1820E+03  0.1820E+03
     -3.357  0.1096E+02  0.1096E+02  0.1840E+03  0.1840E+03
     -3.174  0.2132E-03  0.2133E-03  0.1860E+03  0.1860E+03
     -2.992  0.0000E+00  0.0000E+00  0.1880E+03  0.1880E+03
     -2.809  0.0000E+00  0.0000E+00  0.1900E+03  0.1900E+03
     -2.627  0.1096E+02  0.1096E+02  0.1920E+03  0.1920E+03
     -2.444  0.0000E+00  0.0000E+00  0.1920E+03  0.1920E+03
     -2.261  0.0000E+00  0.0000E+00  0.1920E+03  0.1920E+03
     -2.079  0.1368E-08  0.1369E-08  0.1920E+03  0.1920E+03
     -1.896  0.0000E+00  0.0000E+00  0.1940E+03  0.1940E+03
     -1.714  0.1064E+02  0.1064E+02  0.1959E+03  0.1959E+03
     -1.531  0.0000E+00  0.0000E+00  0.1980E+03  0.1980E+03
     -1.349  0.0000E+00  0.0000E+00  0.2000E+03  0.2000E+03
     -1.166  0.1480E-02  0.1479E-02  0.2020E+03  0.2020E+03
     -0.984  0.1886E+02  0.1885E+02  0.2074E+03  0.2074E+03
     -0.801  0.2823E-07  0.2818E-07  0.2100E+03  0.2100E+03
     -0.619  0.1101E+02  0.1101E+02  0.2140E+03  0.2140E+03
     -0.436  0.1036E+02  0.1036E+02  0.2199E+03  0.2199E+03
     -0.253  0.2191E+02  0.2191E+02  0.2260E+03  0.2260E+03
     -0.071  0.1096E+02  0.1096E+02  0.2280E+03  0.2280E+03
      0.112  0.1182E+02  0.1182E+02  0.2342E+03  0.2342E+03
      0.294  0.2190E+02  0.2190E+02  0.2420E+03  0.2420E+03
      0.477  0.2141E+02  0.2141E+02  0.2479E+03  0.2479E+03
      0.659  0.1012E+02  0.1012E+02  0.2518E+03  0.2518E+03
      0.842  0.0000E+00  0.0000E+00  0.2560E+03  0.2560E+03
      1.024  0.0000E+00  0.0000E+00  0.2560E+03  0.2560E+03
      1.207  0.0000E+00  0.0000E+00  0.2560E+03  0.2560E+03
      1.389  0.0000E+00  0.0000E+00  0.2560E+03  0.2560E+03
      1.572  0.0000E+00  0.0000E+00  0.2560E+03  0.2560E+03
      1.755  0.0000E+00  0.0000E+00  0.2560E+03  0.2560E+03
      1.937  0.0000E+00  0.0000E+00  0.2560E+03  0.2560E+03
      2.120  0.0000E+00  0.0000E+00  0.2560E+03  0.2560E+03
      2.302  0.0000E+00  0.0000E+00  0.2560E+03  0.2560E+03
      2.485  0.0000E+00  0.0000E+00  0.2560E+03  0.2560E+03
      2.667  0.0000E+00  0.0000E+00  0.2560E+03  0.2560E+03
      2.850  0.0000E+00  0.0000E+00  0.2560E+03  0.2560E+03
      3.032  0.0000E+00  0.0000E+00  0.2560E+03  0.2560E+03
      3.215  0.0000E+00  0.0000E+00  0.2560E+03  0.2560E+03
