   55   55    1    2
  0.1454545E+03  0.2000000E-08  0.2000000E-08  0.2000000E-08  0.5000000E-15
  1.000000000000000E-004
  CAR 
 c2_oh2_ruthenium_mol                    
    166      1    128
 
  0.0000000E+00  0.0000000E+00  0.0000000E+00  0.1000000E+01
    1      -49.059514    -49.059515
    2      -48.959976    -48.959977
    3      -48.689560    -48.689560
    4      -29.194219    -29.194219
    5      -27.579015    -27.579015
    6      -26.839297    -26.839297
    7      -26.625217    -26.625217
    8      -26.122726    -26.122726
    9      -26.089549    -26.089549
   10      -24.119562    -24.119562
   11      -23.058216    -23.058216
   12      -22.657142    -22.657142
   13      -22.394367    -22.394367
   14      -22.282944    -22.282944
   15      -22.156971    -22.156971
   16      -21.958577    -21.958577
   17      -21.549305    -21.549305
   18      -21.029466    -21.029466
   19      -20.757446    -20.757446
   20      -19.631856    -19.631856
   21      -19.377691    -19.377691
   22      -18.695429    -18.695429
   23      -18.411777    -18.411777
   24      -18.255603    -18.255603
   25      -18.036192    -18.036193
   26      -17.768215    -17.768215
   27      -17.572874    -17.572874
   28      -17.545285    -17.545285
   29      -17.267564    -17.267564
   30      -16.870151    -16.870151
   31      -16.671080    -16.671080
   32      -15.875562    -15.875562
   33      -15.746477    -15.746477
   34      -15.452498    -15.452498
   35      -15.192742    -15.192742
   36      -14.893232    -14.893232
   37      -14.732541    -14.732541
   38      -14.667749    -14.667749
   39      -14.497919    -14.497919
   40      -14.098758    -14.098758
   41      -14.035289    -14.035289
   42      -13.987897    -13.987897
   43      -13.947942    -13.947942
   44      -13.898190    -13.898190
   45      -13.755227    -13.755227
   46      -13.639675    -13.639675
   47      -13.396755    -13.396755
   48      -13.316444    -13.316444
   49      -13.190035    -13.190035
   50      -13.155534    -13.155534
   51      -12.972845    -12.972845
   52      -12.858589    -12.858589
   53      -12.689259    -12.689259
   54      -12.634483    -12.634483
   55      -12.532054    -12.532054
   56      -12.384011    -12.384011
   57      -12.297151    -12.297151
   58      -12.210735    -12.210735
   59      -12.161465    -12.161465
   60      -12.012685    -12.012685
   61      -11.573046    -11.573046
   62      -11.533943    -11.533943
   63      -11.255733    -11.255733
   64      -11.219651    -11.219651
   65      -11.097708    -11.097708
   66      -11.023340    -11.023340
   67      -10.807533    -10.807533
   68      -10.661290    -10.661290
   69      -10.482549    -10.482549
   70      -10.396899    -10.396899
   71      -10.055358    -10.055358
   72       -9.963120     -9.963120
   73       -9.907024     -9.907024
   74       -9.751327     -9.751327
   75       -9.705713     -9.705713
   76       -9.662745     -9.662745
   77       -9.308255     -9.308255
   78       -9.103794     -9.103794
   79       -8.648382     -8.648382
   80       -8.342387     -8.342386
   81       -7.404486     -7.404486
   82       -7.233265     -7.233265
   83       -7.120965     -7.120965
   84       -5.698383     -5.698383
   85       -5.309903     -5.309903
   86       -4.921810     -4.921810
   87       -4.420581     -4.420581
   88       -4.122178     -4.122178
   89       -4.045611     -4.045611
   90       -3.919904     -3.919904
   91       -3.854009     -3.854009
   92       -3.433950     -3.433950
   93       -3.311381     -3.311380
   94       -3.145085     -3.145086
   95       -2.926554     -2.926553
   96       -2.680089     -2.680089
   97       -2.034160     -2.034161
   98       -1.727225     -1.727224
   99       -1.663565     -1.663564
  100       -1.470599     -1.470598
  101       -1.287160     -1.287160
  102       -1.140416     -1.140415
  103       -1.061299     -1.061298
  104       -0.987768     -0.987765
  105       -0.936476     -0.936474
  106       -0.759770     -0.759769
  107       -0.653714     -0.653711
  108       -0.600051     -0.600049
  109       -0.554110     -0.554108
  110       -0.447198     -0.447196
  111       -0.415192     -0.415192
  112       -0.318410     -0.318409
  113       -0.276813     -0.276808
  114       -0.137413     -0.137411
  115       -0.005055     -0.005053
  116        0.016249      0.016250
  117        0.078335      0.078337
  118        0.121649      0.121650
  119        0.165445      0.165447
  120        0.233937      0.233940
  121        0.272170      0.272175
  122        0.371372      0.371378
  123        0.412527      0.412524
  124        0.464811      0.464810
  125        0.574113      0.574114
  126        0.655549      0.655553
  127        0.664685      0.664683
  128        0.725665      0.725633
