       N       E                     dE             d eps       ncg     rms          rms(c)
DAV:   1     0.909420165777E+03    0.90942E+03   -0.58810E+04   768   0.974E+02
DAV:   2    -0.694717170627E+02   -0.97889E+03   -0.97250E+03  1024   0.160E+02
DAV:   3    -0.393237051166E+03   -0.32377E+03   -0.32332E+03   832   0.849E+01
DAV:   4    -0.412233272432E+03   -0.18996E+02   -0.18972E+02   704   0.257E+01
DAV:   5    -0.412458783897E+03   -0.22551E+00   -0.22541E+00   896   0.303E+00    0.576E+01
DAV:   6    -0.394213311154E+03    0.18245E+02   -0.38974E+02   576   0.239E+01    0.391E+01
DAV:   7    -0.383262789016E+03    0.10951E+02   -0.23679E+01   704   0.214E+01    0.239E+01
DAV:   8    -0.378849237147E+03    0.44136E+01   -0.17631E+01   768   0.104E+01    0.981E+00
DAV:   9    -0.377636250967E+03    0.12130E+01   -0.49780E+00   768   0.494E+00    0.370E+00
DAV:  10    -0.377581758676E+03    0.54492E-01   -0.43534E-01   768   0.161E+00    0.259E+00
DAV:  11    -0.377462536273E+03    0.11922E+00   -0.11014E-01   768   0.839E-01    0.131E+00
DAV:  12    -0.377383337838E+03    0.79198E-01   -0.78441E-02   768   0.673E-01    0.700E-01
DAV:  13    -0.377358674069E+03    0.24664E-01   -0.15826E-02   768   0.368E-01    0.514E-01
DAV:  14    -0.377340977268E+03    0.17697E-01   -0.28412E-02   768   0.433E-01    0.287E-01
DAV:  15    -0.377340798806E+03    0.17846E-03   -0.70611E-03   768   0.239E-01    0.248E-01
DAV:  16    -0.377350949145E+03   -0.10150E-01   -0.19525E-03   768   0.138E-01    0.130E-01
DAV:  17    -0.377357147899E+03   -0.61988E-02   -0.14333E-03   768   0.109E-01    0.866E-02
DAV:  18    -0.377361073245E+03   -0.39253E-02   -0.46138E-04   896   0.632E-02    0.683E-02
DAV:  19    -0.377365736821E+03   -0.46636E-02   -0.38374E-04   768   0.576E-02    0.409E-02
DAV:  20    -0.377368159599E+03   -0.24228E-02   -0.12460E-04   768   0.328E-02    0.264E-02
DAV:  21    -0.377369845160E+03   -0.16856E-02   -0.44727E-05   768   0.204E-02    0.167E-02
DAV:  22    -0.377371228514E+03   -0.13834E-02   -0.42479E-05   768   0.165E-02    0.920E-03
DAV:  23    -0.377371836039E+03   -0.60752E-03   -0.13369E-05   640   0.876E-03    0.764E-03
DAV:  24    -0.377372252168E+03   -0.41613E-03   -0.84234E-06   640   0.624E-03    0.401E-03
DAV:  25    -0.377372506002E+03   -0.25383E-03   -0.56511E-06   640   0.461E-03    0.230E-03
DAV:  26    -0.377372640229E+03   -0.13423E-03   -0.19986E-06   640   0.274E-03    0.145E-03
DAV:  27    -0.377372717969E+03   -0.77740E-04   -0.12974E-06   640   0.203E-03    0.859E-04
DAV:  28    -0.377372749918E+03   -0.31950E-04   -0.31851E-07   640   0.117E-03    0.542E-04
DAV:  29    -0.377372772195E+03   -0.22277E-04   -0.17616E-07   640   0.906E-04    0.340E-04
DAV:  30    -0.377372781165E+03   -0.89697E-05    0.15646E-08   640   0.544E-04
   1 F= -.37737278E+03 E0= -.37737278E+03  d E =-.100363-111  mag=     0.0000
