 vasp.5.3.5 31Mar14 (build Apr 08 2014 12:00:03) complex                        
  
 VASP binary ID code NSC-NSCPATCH-BUILD02 date 2017.03.15  18:39:13
 running on   64 total cores
 distrk:  each k-point on   64 cores,    1 groups
 distr:  one band on NCORES_PER_BAND=   1 cores,   64 groups


--------------------------------------------------------------------------------------------------------


 INCAR:
 POTCAR:    PAW_PBE C_h 06Feb2004                 
 POTCAR:    PAW_PBE C_h 06Feb2004                 
 POTCAR:    PAW_PBE H 15Jun2001                   
 POTCAR:    PAW_PBE N_h 06Feb2004                 
 POTCAR:    PAW_PBE O_h 06Feb2004                 
 POTCAR:    PAW_PBE Ru_pv 28Jan2005               

 ----------------------------------------------------------------------------- 
|                                                                             |
|           W    W    AA    RRRRR   N    N  II  N    N   GGGG   !!!           |
|           W    W   A  A   R    R  NN   N  II  NN   N  G    G  !!!           |
|           W    W  A    A  R    R  N N  N  II  N N  N  G       !!!           |
|           W WW W  AAAAAA  RRRRR   N  N N  II  N  N N  G  GGG   !            |
|           WW  WW  A    A  R   R   N   NN  II  N   NN  G    G                |
|           W    W  A    A  R    R  N    N  II  N    N   GGGG   !!!           |
|                                                                             |
|      For optimal performance we recommend to set                            |
|        NCORE= 4 - approx SQRT( number of cores)                             |
|      NCORE specifies how many cores store one orbital (NPAR=cpu/NCORE).     |
|      This setting can  greatly improve the performance of VASP for DFT.     |
|      The default, NPAR=number of cores might be grossly inefficient         |
|      on modern multi-core architectures or massively parallel machines.     |
|      Do your own testing !!!!                                               |
|      Unfortunately you need to use the default for GW and RPA calculations. |
|      (for HF NCORE is supported but not extensively tested yet)             |
|                                                                             |
 ----------------------------------------------------------------------------- 

 POTCAR:    PAW_PBE C_h 06Feb2004                 
   VRHFIN =C: s2p2                                                              
   LEXCH  = PE                                                                  
   EATOM  =   147.1560 eV,   10.8157 Ry                                         
                                                                                
   TITEL  = PAW_PBE C_h 06Feb2004                                               
   LULTRA =        F    use ultrasoft PP ?                                      
   IUNSCR =        1    unscreen: 0-lin 1-nonlin 2-no                           
   RPACOR =    0.800    partial core radius                                     
   POMASS =   12.011; ZVAL   =    4.000    mass and valenz                      
   RCORE  =    1.100    outmost cutoff radius                                   
   RWIGS  =    1.630; RWIGS  =    0.863    wigner-seitz radius (au A)           
   ENMAX  =  700.000; ENMIN  =  500.000 eV                                      
   ICORE  =        2    local potential                                         
   LCOR   =        T    correct aug charges                                     
   LPAW   =        T    paw PP                                                  
   EAUG   =  946.768                                                            
   DEXC   =    0.000                                                            
   RMAX   =    1.128    core radius for proj-oper                               
   RAUG   =    1.300    factor for augmentation sphere                          
   RDEP   =    1.162    radius for radial grids                                 
   RDEPT  =    1.088    core radius for aug-charge                              
                                                                                
   Atomic configuration                                                         
    4 entries                                                                   
     n  l   j            E        occ.                                          
     1  0  0.50      -273.3789   2.0000                                         
     2  0  0.50       -13.7508   2.0000                                         
     2  1  0.50        -5.2854   2.0000                                         
     3  2  1.50        -5.4423   0.0000                                         
   Description                                                                  
     l       E           TYP  RCUT    TYP  RCUT                                 
     0    -13.7508458     23  1.100                                             
     0     -8.2022199     23  1.100                                             
     1     -5.2854383     23  1.100                                             
     1      1.1560700     23  1.100                                             
     2     -5.4423304      7  1.100                                             
  local pseudopotential read in
  partial core-charges read in
  partial kinetic energy density read in
  atomic valenz-charges read in
  non local Contribution for L=           0  read in
    real space projection operators read in
  non local Contribution for L=           0  read in
    real space projection operators read in
  non local Contribution for L=           1  read in
    real space projection operators read in
  non local Contribution for L=           1  read in
    real space projection operators read in
    PAW grid and wavefunctions read in
 
   number of l-projection  operators is LMAX  =           4
   number of lm-projection operators is LMMAX =           8
 
 POTCAR:    PAW_PBE C_h 06Feb2004                 
   VRHFIN =C: s2p2                                                              
   LEXCH  = PE                                                                  
   EATOM  =   147.1560 eV,   10.8157 Ry                                         
                                                                                
   TITEL  = PAW_PBE C_h 06Feb2004                                               
   LULTRA =        F    use ultrasoft PP ?                                      
   IUNSCR =        1    unscreen: 0-lin 1-nonlin 2-no                           
   RPACOR =    0.800    partial core radius                                     
   POMASS =   12.011; ZVAL   =    4.000    mass and valenz                      
   RCORE  =    1.100    outmost cutoff radius                                   
   RWIGS  =    1.630; RWIGS  =    0.863    wigner-seitz radius (au A)           
   ENMAX  =  700.000; ENMIN  =  500.000 eV                                      
   ICORE  =        2    local potential                                         
   LCOR   =        T    correct aug charges                                     
   LPAW   =        T    paw PP                                                  
   EAUG   =  946.768                                                            
   DEXC   =    0.000                                                            
   RMAX   =    1.128    core radius for proj-oper                               
   RAUG   =    1.300    factor for augmentation sphere                          
   RDEP   =    1.162    radius for radial grids                                 
   RDEPT  =    1.088    core radius for aug-charge                              
                                                                                
   Atomic configuration                                                         
    4 entries                                                                   
     n  l   j            E        occ.                                          
     1  0  0.50      -273.3789   2.0000                                         
     2  0  0.50       -13.7508   2.0000                                         
     2  1  0.50        -5.2854   2.0000                                         
     3  2  1.50        -5.4423   0.0000                                         
   Description                                                                  
     l       E           TYP  RCUT    TYP  RCUT                                 
     0    -13.7508458     23  1.100                                             
     0     -8.2022199     23  1.100                                             
     1     -5.2854383     23  1.100                                             
     1      1.1560700     23  1.100                                             
     2     -5.4423304      7  1.100                                             
  local pseudopotential read in
  partial core-charges read in
  partial kinetic energy density read in
  atomic valenz-charges read in
  non local Contribution for L=           0  read in
    real space projection operators read in
  non local Contribution for L=           0  read in
    real space projection operators read in
  non local Contribution for L=           1  read in
    real space projection operators read in
  non local Contribution for L=           1  read in
    real space projection operators read in
    PAW grid and wavefunctions read in
 
   number of l-projection  operators is LMAX  =           4
   number of lm-projection operators is LMMAX =           8
 
 POTCAR:    PAW_PBE H 15Jun2001                   
   VRHFIN =H: ultrasoft test                                                    
   LEXCH  = PE                                                                  
   EATOM  =    12.4884 eV,    0.9179 Ry                                         
                                                                                
   TITEL  = PAW_PBE H 15Jun2001                                                 
   LULTRA =        F    use ultrasoft PP ?                                      
   IUNSCR =        0    unscreen: 0-lin 1-nonlin 2-no                           
   RPACOR =    0.000    partial core radius                                     
   POMASS =    1.000; ZVAL   =    1.000    mass and valenz                      
   RCORE  =    1.100    outmost cutoff radius                                   
   RWIGS  =    0.700; RWIGS  =    0.370    wigner-seitz radius (au A)           
   ENMAX  =  250.000; ENMIN  =  200.000 eV                                      
   RCLOC  =    0.701    cutoff for local pot                                    
   LCOR   =        T    correct aug charges                                     
   LPAW   =        T    paw PP                                                  
   EAUG   =  400.000                                                            
   RMAX   =    1.123    core radius for proj-oper                               
   RAUG   =    1.200    factor for augmentation sphere                          
   RDEP   =    1.112    radius for radial grids                                 
   RDEPT  =    0.926    core radius for aug-charge                              
                                                                                
   Atomic configuration                                                         
    2 entries                                                                   
     n  l   j            E        occ.                                          
     1  0  0.50        -6.4927   1.0000                                         
     2  1  0.50        -3.4015   0.0000                                         
   Description                                                                  
     l       E           TYP  RCUT    TYP  RCUT                                 
     0     -6.4927494     23  1.100                                             
     0      6.8029130     23  1.100                                             
     1     -4.0817478     23  1.100                                             
  local pseudopotential read in
  atomic valenz-charges read in
  non local Contribution for L=           0  read in
    real space projection operators read in
  non local Contribution for L=           0  read in
    real space projection operators read in
  non local Contribution for L=           1  read in
    real space projection operators read in
    PAW grid and wavefunctions read in
 
   number of l-projection  operators is LMAX  =           3
   number of lm-projection operators is LMMAX =           5
 
 POTCAR:    PAW_PBE N_h 06Feb2004                 
   VRHFIN =N: s2p3                                                              
   LEXCH  = PE                                                                  
   EATOM  =   264.5486 eV,   19.4438 Ry                                         
                                                                                
   TITEL  = PAW_PBE N_h 06Feb2004                                               
   LULTRA =        F    use ultrasoft PP ?                                      
   IUNSCR =        1    unscreen: 0-lin 1-nonlin 2-no                           
   RPACOR =    0.800    partial core radius                                     
   POMASS =   14.001; ZVAL   =    5.000    mass and valenz                      
   RCORE  =    1.100    outmost cutoff radius                                   
   RWIGS  =    1.480; RWIGS  =    0.783    wigner-seitz radius (au A)           
   ENMAX  =  700.000; ENMIN  =  500.000 eV                                      
   ICORE  =        2    local potential                                         
   LCOR   =        T    correct aug charges                                     
   LPAW   =        T    paw PP                                                  
   EAUG   =  904.640                                                            
   DEXC   =    0.000                                                            
   RMAX   =    1.127    core radius for proj-oper                               
   RAUG   =    1.300    factor for augmentation sphere                          
   RDEP   =    1.115    radius for radial grids                                 
   RDEPT  =    1.106    core radius for aug-charge                              
                                                                                
   Atomic configuration                                                         
    4 entries                                                                   
     n  l   j            E        occ.                                          
     1  0  0.50      -384.7179   2.0000                                         
     2  0  0.50       -18.5828   2.0000                                         
     2  1  0.50        -7.0898   3.0000                                         
     3  2  1.50        -6.8029   0.0000                                         
   Description                                                                  
     l       E           TYP  RCUT    TYP  RCUT                                 
     0    -18.5828117     23  1.100                                             
     0    -15.0750597     23  1.100                                             
     1     -7.0897851     23  1.100                                             
     1     -1.9663412     23  1.100                                             
     2     -6.8029130      7  1.100                                             
  local pseudopotential read in
  partial core-charges read in
  partial kinetic energy density read in
  kinetic energy density of atom read in
  atomic valenz-charges read in
  non local Contribution for L=           0  read in
    real space projection operators read in
  non local Contribution for L=           0  read in
    real space projection operators read in
  non local Contribution for L=           1  read in
    real space projection operators read in
  non local Contribution for L=           1  read in
    real space projection operators read in
    PAW grid and wavefunctions read in
 
   number of l-projection  operators is LMAX  =           4
   number of lm-projection operators is LMMAX =           8
 
 POTCAR:    PAW_PBE O_h 06Feb2004                 
   VRHFIN =O: s2p4                                                              
   LEXCH  = PE                                                                  
   EATOM  =   432.3788 eV,   31.7789 Ry                                         
                                                                                
   TITEL  = PAW_PBE O_h 06Feb2004                                               
   LULTRA =        F    use ultrasoft PP ?                                      
   IUNSCR =        1    unscreen: 0-lin 1-nonlin 2-no                           
   RPACOR =    0.800    partial core radius                                     
   POMASS =   16.000; ZVAL   =    6.000    mass and valenz                      
   RCORE  =    1.100    outmost cutoff radius                                   
   RWIGS  =    1.400; RWIGS  =    0.741    wigner-seitz radius (au A)           
   ENMAX  =  700.000; ENMIN  =  500.000 eV                                      
   ICORE  =        2    local potential                                         
   LCOR   =        T    correct aug charges                                     
   LPAW   =        T    paw PP                                                  
   EAUG   =  888.804                                                            
   DEXC   =    0.000                                                            
   RMAX   =    1.128    core radius for proj-oper                               
   RAUG   =    1.300    factor for augmentation sphere                          
   RDEP   =    1.125    radius for radial grids                                 
   RDEPT  =    1.088    core radius for aug-charge                              
                                                                                
   Atomic configuration                                                         
    4 entries                                                                   
     n  l   j            E        occ.                                          
     1  0  0.50      -514.6923   2.0000                                         
     2  0  0.50       -23.9615   2.0000                                         
     2  1  0.50        -9.0305   4.0000                                         
     3  2  1.50        -9.5241   0.0000                                         
   Description                                                                  
     l       E           TYP  RCUT    TYP  RCUT                                 
     0    -23.9615319     23  1.100                                             
     0    -25.3221145     23  1.100                                             
     1     -9.0304911     23  1.100                                             
     1     -5.4802209     23  1.100                                             
     2     -9.5240782      7  1.100                                             
  local pseudopotential read in
  partial core-charges read in
  partial kinetic energy density read in
  atomic valenz-charges read in
  non local Contribution for L=           0  read in
    real space projection operators read in
  non local Contribution for L=           0  read in
    real space projection operators read in
  non local Contribution for L=           1  read in
    real space projection operators read in
  non local Contribution for L=           1  read in
    real space projection operators read in
    PAW grid and wavefunctions read in
 
   number of l-projection  operators is LMAX  =           4
   number of lm-projection operators is LMMAX =           8
 
 POTCAR:    PAW_PBE Ru_pv 28Jan2005               
   VRHFIN =Ru: 4p5s4d                                                           
   LEXCH  = PE                                                                  
   EATOM  =  1873.4746 eV,  137.6965 Ry                                         
                                                                                
   TITEL  = PAW_PBE Ru_pv 28Jan2005                                             
   LULTRA =        F    use ultrasoft PP ?                                      
   IUNSCR =        1    unscreen: 0-lin 1-nonlin 2-no                           
   RPACOR =    2.170    partial core radius                                     
   POMASS =  101.070; ZVAL   =   14.000    mass and valenz                      
   RCORE  =    2.500    outmost cutoff radius                                   
   RWIGS  =    2.650; RWIGS  =    1.402    wigner-seitz radius (au A)           
   ENMAX  =  240.049; ENMIN  =  180.037 eV                                      
   ICORE  =        3    local potential                                         
   LCOR   =        T    correct aug charges                                     
   LPAW   =        T    paw PP                                                  
   EAUG   =  430.792                                                            
   DEXC   =    0.000                                                            
   RMAX   =    2.546    core radius for proj-oper                               
   RAUG   =    1.300    factor for augmentation sphere                          
   RDEP   =    2.520    radius for radial grids                                 
   RDEPT  =    2.044    core radius for aug-charge                              
                                                                                
   Atomic configuration                                                         
   11 entries                                                                   
     n  l   j            E        occ.                                          
     1  0  0.50    -21933.2692   2.0000                                         
     2  0  0.50     -3153.4096   2.0000                                         
     2  1  1.50     -2823.9548   6.0000                                         
     3  0  0.50      -555.3322   2.0000                                         
     3  1  1.50      -447.1024   6.0000                                         
     3  2  2.50      -273.0570  10.0000                                         
     4  0  0.50       -76.3589   2.0000                                         
     4  1  1.50       -46.4050   6.0000                                         
     4  2  2.50        -5.2029   7.0000                                         
     5  0  0.50        -4.2392   1.0000                                         
     4  3  2.50        -1.3606   0.0000                                         
   Description                                                                  
     l       E           TYP  RCUT    TYP  RCUT                                 
     1    -46.4050190     23  2.100                                             
     1      4.0817478     23  2.100                                             
     2     -5.2028758     23  2.500                                             
     2     -6.5634584     23  2.500                                             
     0     -4.2392192     23  2.500                                             
     0      7.0918828     23  2.500                                             
     3     -5.4423304     23  2.500                                             
  local pseudopotential read in
  partial core-charges read in
  partial kinetic energy density read in
  atomic valenz-charges read in
  non local Contribution for L=           1  read in
    real space projection operators read in
  non local Contribution for L=           1  read in
    real space projection operators read in
  non local Contribution for L=           2  read in
    real space projection operators read in
  non local Contribution for L=           2  read in
    real space projection operators read in
  non local Contribution for L=           0  read in
    real space projection operators read in
  non local Contribution for L=           0  read in
    real space projection operators read in
    PAW grid and wavefunctions read in
 
   number of l-projection  operators is LMAX  =           6
   number of lm-projection operators is LMMAX =          18
 
 Optimization of the real space projectors (new method)

 maximal supplied QI-value         = 34.20
 optimisation between [QCUT,QGAM] = [ 13.34, 27.02] = [ 49.83,204.46] Ry 
 Optimized for a Real-space Cutoff    1.04 Angstroem

   l    n(q)    QCUT    max X(q) W(low)/X(q) W(high)/X(q)  e(spline) 
   0      8    13.340   134.812    0.72E-04    0.21E-03    0.27E-06
   0      8    13.340    80.524    0.70E-04    0.21E-03    0.27E-06
   1      8    13.340    79.026    0.21E-03    0.16E-03    0.33E-06
   1      8    13.340    45.188    0.20E-03    0.15E-03    0.33E-06
 Optimization of the real space projectors (new method)

 maximal supplied QI-value         = 34.20
 optimisation between [QCUT,QGAM] = [ 13.34, 27.02] = [ 49.83,204.46] Ry 
 Optimized for a Real-space Cutoff    1.04 Angstroem

   l    n(q)    QCUT    max X(q) W(low)/X(q) W(high)/X(q)  e(spline) 
   0      8    13.340   134.812    0.72E-04    0.21E-03    0.27E-06
   0      8    13.340    80.524    0.70E-04    0.21E-03    0.27E-06
   1      8    13.340    79.026    0.21E-03    0.16E-03    0.33E-06
   1      8    13.340    45.188    0.20E-03    0.15E-03    0.33E-06
 Optimization of the real space projectors (new method)

 maximal supplied QI-value         = 34.20
 optimisation between [QCUT,QGAM] = [ 13.34, 27.02] = [ 49.83,204.46] Ry 
 Optimized for a Real-space Cutoff    0.98 Angstroem

   l    n(q)    QCUT    max X(q) W(low)/X(q) W(high)/X(q)  e(spline) 
   0      8    13.340    19.460    0.18E-03    0.41E-04    0.19E-06
   0      8    13.340    12.209    0.17E-03    0.45E-04    0.18E-06
   1      7    13.340     4.655    0.16E-03    0.30E-03    0.14E-06
 Optimization of the real space projectors (new method)

 maximal supplied QI-value         = 34.20
 optimisation between [QCUT,QGAM] = [ 13.34, 27.02] = [ 49.83,204.46] Ry 
 Optimized for a Real-space Cutoff    1.04 Angstroem

   l    n(q)    QCUT    max X(q) W(low)/X(q) W(high)/X(q)  e(spline) 
   0      8    13.340   148.539    0.85E-04    0.19E-03    0.21E-06
   0      8    13.340   106.192    0.84E-04    0.19E-03    0.21E-06
   1      8    13.340    73.877    0.18E-03    0.11E-03    0.36E-06
   1      8    13.340    50.042    0.17E-03    0.11E-03    0.36E-06
 Optimization of the real space projectors (new method)

 maximal supplied QI-value         = 34.20
 optimisation between [QCUT,QGAM] = [ 13.34, 27.02] = [ 49.83,204.46] Ry 
 Optimized for a Real-space Cutoff    0.98 Angstroem

   l    n(q)    QCUT    max X(q) W(low)/X(q) W(high)/X(q)  e(spline) 
   0      8    13.340   280.207    0.16E-03    0.35E-03    0.14E-06
   0      8    13.340   228.978    0.16E-03    0.35E-03    0.14E-06
   1      7    13.340    86.127    0.23E-03    0.25E-04    0.30E-06
   1      7    13.340    65.368    0.22E-03    0.27E-04    0.30E-06
 Optimization of the real space projectors (new method)

 maximal supplied QI-value         = 15.12
 optimisation between [QCUT,QGAM] = [ 13.45, 27.06] = [ 50.69,205.06] Ry 
 Optimized for a Real-space Cutoff    1.40 Angstroem

   l    n(q)    QCUT    max X(q) W(low)/X(q) W(high)/X(q)  e(spline) 
   1     11    13.455     3.180    0.18E-04    0.25E-04    0.55E-07
   1     11    13.455     5.351    0.12E-03    0.15E-03    0.24E-06
   2     10    13.455    66.565    0.13E-03    0.46E-04    0.26E-06
   2     10    13.455    63.466    0.13E-03    0.47E-04    0.27E-06
   0     11    13.455    85.644    0.47E-04    0.16E-04    0.33E-06
   0     11    13.455    44.119    0.43E-04    0.15E-04    0.30E-06
  PAW_PBE C_h 06Feb2004                 :
 energy of atom  1       EATOM= -147.1560
 kinetic energy error for atom=    0.0286 (will be added to EATOM!!)
  PAW_PBE C_h 06Feb2004                 :
 energy of atom  2       EATOM= -147.1560
 kinetic energy error for atom=    0.0286 (will be added to EATOM!!)
  PAW_PBE H 15Jun2001                   :
 energy of atom  3       EATOM=  -12.4884
 kinetic energy error for atom=    0.0002 (will be added to EATOM!!)
  PAW_PBE N_h 06Feb2004                 :
 energy of atom  4       EATOM= -264.5486
 kinetic energy error for atom=    0.0847 (will be added to EATOM!!)
  PAW_PBE O_h 06Feb2004                 :
 energy of atom  5       EATOM= -432.3788
 kinetic energy error for atom=    0.1855 (will be added to EATOM!!)
  PAW_PBE Ru_pv 28Jan2005               :
 energy of atom  6       EATOM=-1873.4746
 kinetic energy error for atom=    0.0017 (will be added to EATOM!!)
 
 
 POSCAR: C C H N O Ru                            
  positions in direct lattice
  velocities in cartesian coordinates
 exchange correlation table for  LEXCH =        8
   RHO(1)=    0.500       N(1)  =     2000
   RHO(2)=  100.500       N(2)  =     4000
 


--------------------------------------------------------------------------------------------------------


 ion  position               nearest neighbor table
   1  0.631  0.378  0.654-  28 1.09  16 1.39   9 1.40
   2  0.438  0.566  0.328-  43 1.09   3 1.39   6 1.39
   3  0.456  0.524  0.381-  38 1.09  49 1.36   2 1.39
   4  0.474  0.615  0.450-  34 1.09  49 1.36   5 1.39
   5  0.456  0.660  0.399-  33 1.09   4 1.39   6 1.40
   6  0.438  0.635  0.337-  32 1.09   2 1.39   5 1.40
   7  0.523  0.330  0.675-  26 1.09   8 1.39  16 1.40
   8  0.497  0.372  0.626-  31 1.09  51 1.36   7 1.39
   9  0.602  0.419  0.606-  51 1.37   1 1.40  14 1.47
  10  0.293  0.477  0.568-  45 1.09  25 1.39  17 1.40
  11  0.740  0.529  0.535-  41 1.09  15 1.39  12 1.40
  12  0.701  0.566  0.490-  37 1.09  13 1.39  11 1.40
  13  0.633  0.554  0.487-  47 1.09  53 1.36  12 1.39
  14  0.640  0.469  0.567-  53 1.37  15 1.40   9 1.47
  15  0.708  0.480  0.573-  36 1.09  11 1.39  14 1.40
  16  0.591  0.332  0.689-  27 1.09   1 1.39   7 1.40
  17  0.362  0.489  0.564-  50 1.37  10 1.40  21 1.46
  18  0.408  0.622  0.691-  48 1.09  22 1.39  19 1.40
  19  0.476  0.626  0.677-  44 1.09  20 1.39  18 1.40
  20  0.503  0.586  0.627-  42 1.09  52 1.36  19 1.39
  21  0.398  0.538  0.604-  52 1.38  22 1.40  17 1.46
  22  0.369  0.578  0.654-  30 1.09  18 1.39  21 1.40
  23  0.373  0.406  0.482-  39 1.09  50 1.35  24 1.39
  24  0.305  0.392  0.484-  40 1.09  23 1.39  25 1.40
  25  0.264  0.428  0.528-  46 1.09  10 1.39  24 1.40
  26  0.490  0.295  0.701-   7 1.09
  27  0.613  0.300  0.727-  16 1.09
  28  0.684  0.381  0.665-   1 1.09
  29  0.542  0.362  0.461-  54 0.97
  30  0.316  0.573  0.664-  22 1.09
  31  0.444  0.371  0.614-   8 1.09
  32  0.424  0.668  0.296-   6 1.09
  33  0.456  0.713  0.410-   5 1.09
  34  0.488  0.634  0.499-   4 1.09
  35  0.569  0.418  0.415-  54 0.98
  36  0.738  0.450  0.608-  15 1.09
  37  0.723  0.605  0.459-  12 1.09
  38  0.456  0.470  0.375-   3 1.09
  39  0.406  0.379  0.449-  23 1.09
  40  0.284  0.353  0.452-  24 1.09
  41  0.793  0.537  0.539-  11 1.09
  42  0.556  0.588  0.614-  20 1.09
  43  0.424  0.543  0.280-   2 1.09
  44  0.509  0.660  0.704-  19 1.09
  45  0.263  0.506  0.603-  10 1.09
  46  0.211  0.418  0.531-  25 1.09
  47  0.601  0.582  0.453-  13 1.09
  48  0.385  0.653  0.729-  18 1.09
  49  0.474  0.548  0.441-   4 1.36   3 1.36  55 2.12
  50  0.402  0.453  0.521-  23 1.35  17 1.37  55 2.06
  51  0.535  0.416  0.592-   8 1.36   9 1.37  55 2.06
  52  0.465  0.543  0.590-  20 1.36  21 1.38  55 2.01
  53  0.601  0.507  0.524-  13 1.36  14 1.37  55 2.08
  54  0.531  0.406  0.442-  29 0.97  35 0.98  55 2.24
  55  0.501  0.481  0.519-  52 2.01  50 2.06  51 2.06  53 2.08  49 2.12  54 2.24
 
  LATTYP: Found a simple cubic cell.
 ALAT       =    20.0000000000
  
  Lattice vectors:
  
 A1 = (  20.0000000000,   0.0000000000,   0.0000000000)
 A2 = (   0.0000000000,  20.0000000000,   0.0000000000)
 A3 = (   0.0000000000,   0.0000000000,  20.0000000000)


Analysis of symmetry for initial positions (statically):
=====================================================================
 Subroutine PRICEL returns:
 Original cell was already a primitive cell.
 

 Routine SETGRP: Setting up the symmetry group for a 
 simple cubic supercell.


 Subroutine GETGRP returns: Found  1 space group operations
 (whereof  1 operations were pure point group operations)
 out of a pool of 48 trial point group operations.


The static configuration has the point symmetry C_1 .


Analysis of symmetry for dynamics (positions and initial velocities):
=====================================================================
 Subroutine PRICEL returns:
 Original cell was already a primitive cell.
 

 Routine SETGRP: Setting up the symmetry group for a 
 simple cubic supercell.


 Subroutine GETGRP returns: Found  1 space group operations
 (whereof  1 operations were pure point group operations)
 out of a pool of 48 trial point group operations.


The dynamic configuration has the point symmetry C_1 .


Analysis of constrained symmetry for selective dynamics:
=====================================================================
 Subroutine PRICEL returns:
 Original cell was already a primitive cell.
 

 Routine SETGRP: Setting up the symmetry group for a 
 simple cubic supercell.


 Subroutine GETGRP returns: Found  1 space group operations
 (whereof  1 operations were pure point group operations)
 out of a pool of 48 trial point group operations.


The constrained configuration has the point symmetry C_1 .


Analysis of magnetic symmetry:
=====================================================================
 Subroutine PRICEL returns:
 Original cell was already a primitive cell.
 

 Subroutine MAGSYM returns: Found  1 space group operations
 (whereof  1 operations were pure point group operations)
 out of a pool of  1 trial space group operations
 (whereof  1 operations were pure point group operations)
 and found also     1 'primitive' translations


The magnetic configuration has the point symmetry C_1 .
 
 
 KPOINTS: K-Points                                

Automatic generation of k-mesh.
Space group operators:
 irot       det(A)        alpha          n_x          n_y          n_z        tau_x        tau_y        tau_z
    1     1.000000     0.000000     1.000000     0.000000     0.000000     0.000000     0.000000     0.000000
 
 Subroutine IBZKPT returns following result:
 ===========================================
 
 Found      1 irreducible k-points:
 
 Following reciprocal coordinates:
            Coordinates               Weight
  0.000000  0.000000  0.000000      1.000000
 
 Following cartesian coordinates:
            Coordinates               Weight
  0.000000  0.000000  0.000000      1.000000
 


--------------------------------------------------------------------------------------------------------




 Dimension of arrays:
   k-points           NKPTS =      1   k-points in BZ     NKDIM =      1   number of bands    NBANDS=    128
   number of dos      NEDOS =    301   number of ions     NIONS =     55
   non local maximal  LDIM  =      6   non local SUM 2l+1 LMDIM =     18
   total plane-waves  NPLWV = ******
   max r-space proj   IRMAX =   8473   max aug-charges    IRDMAX= 268848
   dimension x,y,z NGX =   180 NGY =  180 NGZ =  180
   dimension x,y,z NGXF=   360 NGYF=  360 NGZF=  360
   support grid    NGXF=   720 NGYF=  720 NGZF=  720
   ions per type =               1  24  23   5   1   1
 NGX,Y,Z   is equivalent  to a cutoff of  14.96, 14.96, 14.96 a.u.
 NGXF,Y,Z  is equivalent  to a cutoff of  29.92, 29.92, 29.92 a.u.


 I would recommend the setting:
   dimension x,y,z NGX =   173 NGY =  173 NGZ =  173
 SYSTEM =  c2_oh2_ruthenium_mol                    
 POSCAR =  C C H N O Ru                            

 Startparameter for this run:
   NWRITE =      2    write-flag & timer
   PREC   = accura    normal or accurate (medium, high low for compatibility)
   ISTART =      0    job   : 0-new  1-cont  2-samecut
   ICHARG =      2    charge: 1-file 2-atom 10-const
   ISPIN  =      2    spin polarized calculation?
   LNONCOLLINEAR =      F non collinear calculations
   LSORBIT =      F    spin-orbit coupling
   INIWAV =      1    electr: 0-lowe 1-rand  2-diag
   LASPH  =      F    aspherical Exc in radial PAW
   METAGGA=      F    non-selfconsistent MetaGGA calc.

 Electronic Relaxation 1
   ENCUT  =  700.0 eV  51.45 Ry    7.17 a.u.  43.15 43.15 43.15*2*pi/ulx,y,z
   ENINI  =  700.0     initial cutoff
   ENAUG  =  946.8 eV  augmentation charge cutoff
   NELM   =     60;   NELMIN=  2; NELMDL= -5     # of ELM steps 
   EDIFF  = 0.1E-04   stopping-criterion for ELM
   LREAL  =      T    real-space projection
   NLSPLINE    = F    spline interpolate recip. space projectors
   LCOMPAT=      F    compatible to vasp.4.4
   GGA_COMPAT  = T    GGA compatible to vasp.4.4-vasp.4.6
   LMAXPAW     = -100 max onsite density
   LMAXMIX     =    2 max onsite mixed and CHGCAR
   VOSKOWN=      0    Vosko Wilk Nusair interpolation
   ROPT   =   -0.00025  -0.00025  -0.00025  -0.00025
   ROPT   =   -0.00025  -0.00025
 Ionic relaxation
   EDIFFG = -.1E-01   stopping-criterion for IOM
   NSW    =      0    number of steps for IOM
   NBLOCK =      1;   KBLOCK =      1    inner block; outer block 
   IBRION =     -1    ionic relax: 0-MD 1-quasi-New 2-CG
   NFREE  =      0    steps in history (QN), initial steepest desc. (CG)
   ISIF   =      2    stress and relaxation
   IWAVPR =     10    prediction:  0-non 1-charg 2-wave 3-comb
   ISYM   =      2    0-nonsym 1-usesym 2-fastsym
   LCORR  =      T    Harris-Foulkes like correction to forces

   POTIM  = 0.5000    time-step for ionic-motion
   TEIN   =    0.0    initial temperature
   TEBEG  =    0.0;   TEEND  =   0.0 temperature during run
   SMASS  =  -3.00    Nose mass-parameter (am)
   estimated Nose-frequenzy (Omega)   =  0.10E-29 period in steps =****** mass=  -0.914E-26a.u.
   SCALEE = 1.0000    scale energy and forces
   NPACO  =    256;   APACO  = 16.0  distance and # of slots for P.C.
   PSTRESS=    0.0 pullay stress

  Mass of Ions in am
   POMASS =  12.01 12.01  1.00 14.00 16.00101.07
  Ionic Valenz
   ZVAL   =   4.50  4.00  1.00  5.00  6.00 14.00
  Atomic Wigner-Seitz radii
   RWIGS  =  -1.00 -1.00 -1.00 -1.00 -1.00 -1.00
  virtual crystal weights 
   VCA    =   1.00  1.00  1.00  1.00  1.00  1.00
   NELECT =     166.0000    total number of electrons
   NUPDOWN=       0.0000    fix difference up-down

 DOS related values:
   EMIN   =  10.00;   EMAX   =-10.00  energy-range for DOS
   EFERMI =   0.00
   ISMEAR =     0;   SIGMA  =   0.01  broadening in eV -4-tet -1-fermi 0-gaus

 Electronic relaxation 2 (details)
   IALGO  =     38    algorithm
   LDIAG  =      T    sub-space diagonalisation (order eigenvalues)
   LSUBROT=      F    optimize rotation matrix (better conditioning)
   TURBO    =      0    0=normal 1=particle mesh
   IRESTART =      0    0=no restart 2=restart with 2 vectors
   NREBOOT  =      0    no. of reboots
   NMIN     =      0    reboot dimension
   EREF     =   0.00    reference energy to select bands
   IMIX   =      4    mixing-type and parameters
     AMIX     =   0.40;   BMIX     =  2.00
     AMIX_MAG =   1.60;   BMIX_MAG =  2.00
     AMIN     =   0.10
     WC   =   100.;   INIMIX=   1;  MIXPRE=   1;  MAXMIX= -45

 Intra band minimization:
   WEIMIN = 0.0000     energy-eigenvalue tresh-hold
   EBREAK =  0.20E-07  absolut break condition
   DEPER  =   0.30     relativ break condition  

   TIME   =   0.05     timestep for ELM

  volume/ion in A,a.u.               =     145.45       981.58
  Fermi-wavevector in a.u.,A,eV,Ry     =   0.449864  0.850119  2.753510  0.202377
  Thomas-Fermi vector in A             =   1.430192
 
 Write flags
   LWAVE  =      T    write WAVECAR
   LCHARG =      T    write CHGCAR
   LVTOT  =      F    write LOCPOT, total local potential
   LVHAR  =      F    write LOCPOT, Hartree potential only
   LELF   =      F    write electronic localiz. function (ELF)
   LORBIT =      0    0 simple, 1 ext, 2 COOP (PROOUT)


 Dipole corrections
   LMONO  =      F    monopole corrections only (constant potential shift)
   LDIPOL =      F    correct potential (dipole corrections)
   IDIPOL =      0    1-x, 2-y, 3-z, 4-all directions 
   EPSILON=  1.0000000 bulk dielectric constant

 Core level calculations are selected ICORELEVEL =  2
  CLNT =           1       CLN =     1
  CLL  =           0       CLZ = 0.500
 Exchange correlation treatment:
   GGA     =    --    GGA type
   LEXCH   =     8    internal setting for exchange type
   VOSKOWN=      0    Vosko Wilk Nusair interpolation
   LHFCALC =     F    Hartree Fock is set to
   LHFONE  =     F    Hartree Fock one center treatment
   AEXX    =    0.0000 exact exchange contribution

 Linear response parameters
   LEPSILON=     F    determine dielectric tensor
   LRPA    =     F    only Hartree local field effects (RPA)
   LNABLA  =     F    use nabla operator in PAW spheres
   LVEL    =     F    velocity operator in full k-point grid
   LINTERFAST=   F  fast interpolation
   KINTER  =     0    interpolate to denser k-point grid
   CSHIFT  =0.1000    complex shift for real part using Kramers Kronig
   OMEGAMAX=  -1.0    maximum frequency
   DEG_THRESHOLD= 0.2000000E-02 threshold for treating states as degnerate
   RTIME   =    0.100 relaxation time in fs

 Orbital magnetization related:
   ORBITALMAG=     F  switch on orbital magnetization
   LCHIMAG   =     F  perturbation theory with respect to B field
   DQ        =  0.001000  dq finite difference perturbation B field



--------------------------------------------------------------------------------------------------------


 Static calculation
 charge density and potential will be updated during run
 spin polarized calculation
 Variant of blocked Davidson
 Davidson routine will perform the subspace rotation
 perform sub-space diagonalisation
    after iterative eigenvector-optimisation
 modified Broyden-mixing scheme, WC =      100.0
 initial mixing is a Kerker type mixing with AMIX =  0.4000 and BMIX =      2.0000
 Hartree-type preconditioning will be used
 using additional bands           45
 real space projection scheme for non local part
 use partial core corrections
 calculate Harris-corrections to forces 
   (improved forces if not selfconsistent)
 use gradient corrections 
 use of overlap-Matrix (Vanderbilt PP)
 Gauss-broadening in eV      SIGMA  =   0.01


--------------------------------------------------------------------------------------------------------


  energy-cutoff  :      700.00
  volume of cell :     8000.00
      direct lattice vectors                 reciprocal lattice vectors
    20.000000000  0.000000000  0.000000000     0.050000000  0.000000000  0.000000000
     0.000000000 20.000000000  0.000000000     0.000000000  0.050000000  0.000000000
     0.000000000  0.000000000 20.000000000     0.000000000  0.000000000  0.050000000

  length of vectors
    20.000000000 20.000000000 20.000000000     0.050000000  0.050000000  0.050000000


 
 k-points in units of 2pi/SCALE and weight: K-Points                                
   0.00000000  0.00000000  0.00000000       1.000
 
 k-points in reciprocal lattice and weights: K-Points                                
   0.00000000  0.00000000  0.00000000       1.000
 
 position of ions in fractional coordinates (direct lattice) 
   0.63096398  0.37761922  0.65422416
   0.43793752  0.56561110  0.32757008
   0.45581208  0.52423376  0.38051465
   0.47372925  0.61530131  0.44986522
   0.45595175  0.65963312  0.39935201
   0.43785737  0.63472201  0.33675972
   0.52307882  0.32955005  0.67474498
   0.49710163  0.37190466  0.62618823
   0.60227374  0.41933300  0.60593616
   0.29334713  0.47671938  0.56830116
   0.73964927  0.52855915  0.53463181
   0.70082162  0.56612858  0.49044049
   0.63257913  0.55363620  0.48652424
   0.63952130  0.46927713  0.56732841
   0.70843899  0.47974495  0.57314689
   0.59134754  0.33224398  0.68903016
   0.36211554  0.48866484  0.56417415
   0.40790931  0.62211625  0.69058213
   0.47619960  0.62606623  0.67660612
   0.50295190  0.58590820  0.62668073
   0.39825425  0.53800137  0.60426081
   0.36904589  0.57756069  0.65398228
   0.37289802  0.40579857  0.48223443
   0.30486503  0.39173492  0.48443166
   0.26422003  0.42785518  0.52821594
   0.48989745  0.29510618  0.70074864
   0.61334240  0.29968355  0.72673159
   0.68424189  0.38076917  0.66478776
   0.54225374  0.36233861  0.46129841
   0.31579090  0.57306911  0.66420366
   0.44416348  0.37118871  0.61364770
   0.42392665  0.66833230  0.29622671
   0.45642762  0.71313270  0.40950260
   0.48809132  0.63358802  0.49907234
   0.56912778  0.41808713  0.41480476
   0.73767440  0.44963919  0.60776512
   0.72277620  0.60481012  0.45904817
   0.45570253  0.47012894  0.37468790
   0.40614333  0.37888556  0.44852541
   0.28443799  0.35306162  0.45202062
   0.79326502  0.53703787  0.53892527
   0.55589708  0.58769132  0.61440612
   0.42412006  0.54328620  0.27986105
   0.50894741  0.65984570  0.70400156
   0.26265982  0.50568523  0.60265428
   0.21072272  0.41813760  0.53105039
   0.60090654  0.58197914  0.45254259
   0.38544357  0.65296704  0.72941133
   0.47424490  0.54794204  0.44140236
   0.40180479  0.45306079  0.52108436
   0.53520702  0.41608490  0.59173240
   0.46544808  0.54254992  0.59041194
   0.60138410  0.50650621  0.52397638
   0.53073984  0.40562607  0.44215451
   0.50088568  0.48087016  0.51934246
 
 position of ions in cartesian coordinates  (Angst):
  12.61927957  7.55238445 13.08448329
   8.75875044 11.31222209  6.55140167
   9.11624161 10.48467523  7.61029296
   9.47458509 12.30602619  8.99730442
   9.11903505 13.19266234  7.98704025
   8.75714739 12.69444028  6.73519441
  10.46157638  6.59100110 13.49489953
   9.94203263  7.43809325 12.52376455
  12.04547477  8.38665999 12.11872314
   5.86694270  9.53438759 11.36602327
  14.79298537 10.57118301 10.69263621
  14.01643234 11.32257164  9.80880974
  12.65158254 11.07272405  9.73048485
  12.79042597  9.38554253 11.34656829
  14.16877978  9.59489901 11.46293786
  11.82695089  6.64487969 13.78060313
   7.24231077  9.77329687 11.28348299
   8.15818611 12.44232505 13.81164268
   9.52399198 12.52132464 13.53212240
  10.05903801 11.71816400 12.53361469
   7.96508499 10.76002740 12.08521614
   7.38091777 11.55121387 13.07964553
   7.45796037  8.11597149  9.64468853
   6.09730063  7.83469839  9.68863321
   5.28440067  8.55710369 10.56431882
   9.79794892  5.90212351 14.01497288
  12.26684793  5.99367109 14.53463185
  13.68483783  7.61538334 13.29575520
  10.84507475  7.24677213  9.22596819
   6.31581791 11.46138226 13.28407311
   8.88326966  7.42377422 12.27295397
   8.47853309 13.36664601  5.92453423
   9.12855243 14.26265408  8.19005201
   9.76182647 12.67176037  9.98144677
  11.38255564  8.36174255  8.29609511
  14.75348806  8.99278384 12.15530242
  14.45552391 12.09620238  9.18096343
   9.11405064  9.40257887  7.49375804
   8.12286663  7.57771114  8.97050829
   5.68875982  7.06123239  9.04041232
  15.86530045 10.74075733 10.77850539
  11.11794158 11.75382641 12.28812234
   8.48240128 10.86572407  5.59722093
  10.17894811 13.19691406 14.08003122
   5.25319634 10.11370460 12.05308551
   4.21445446  8.36275200 10.62100772
  12.01813087 11.63958272  9.05085175
   7.70887141 13.05934086 14.58822659
   9.48489793 10.95884088  8.82804729
   8.03609572  9.06121573 10.42168714
  10.70414049  8.32169803 11.83464804
   9.30896151 10.85099836 11.80823871
  12.02768196 10.13012430 10.47952760
  10.61479684  8.11252146  8.84309019
  10.01771355  9.61740316 10.38684921
 


--------------------------------------------------------------------------------------------------------


 k-point  1 :   0.0000 0.0000 0.0000  plane waves:  336427

 maximum and minimum number of plane-waves per node :    336427   336427

 maximum number of plane-waves:    336427
 maximum index in each direction: 
   IXMAX=   43   IYMAX=   43   IZMAX=   43
   IXMIN=  -43   IYMIN=  -43   IZMIN=  -43

 NGX is ok and might be reduce to 174
 NGY is ok and might be reduce to 174
 NGZ is ok and might be reduce to 174

 serial   3D FFT for wavefunctions
 parallel 3D FFT for charge:
    minimum data exchange during FFTs selected (reduces bandwidth)


 total amount of memory used by VASP on root node   877132. kBytes
========================================================================

   base      :      30000. kBytes
   nonlr-proj:      19361. kBytes
   fftplans  :     269516. kBytes
   grid      :     534988. kBytes
   one-center:       1710. kBytes
   wavefun   :      21557. kBytes
 
     INWAV:  cpu time    0.00: real time    0.00
 Broyden mixing: mesh for mixing (old mesh)
   NGX = 87   NGY = 87   NGZ = 87
  (NGX  =360   NGY  =360   NGZ  =360)
  gives a total of 658503 points

 initial charge density was supplied:
 charge density of overlapping atoms calculated
 number of electron     168.5000000 magnetization       0.0000000
 keeping initial charge density in first step


--------------------------------------------------------------------------------------------------------


 Maximum index for non-local projection operator         8166
 Maximum index for augmentation-charges         3214 (set IRDMAX)


--------------------------------------------------------------------------------------------------------


 First call to EWALD:  gamma=   0.089
 Maximum number of real-space cells 3x 3x 3
 Maximum number of reciprocal cells 3x 3x 3

 FEWALD executed in parallel
    FEWALD:  cpu time    0.00: real time    0.00


----------------------------------------- Iteration    1(   1)  ---------------------------------------


    POTLOK:  cpu time    4.69: real time    4.72
    SETDIJ:  cpu time    2.76: real time    2.76
     EDDAV:  cpu time   14.75: real time   15.70
       DOS:  cpu time    0.01: real time    0.01
    --------------------------------------------
      LOOP:  cpu time   22.21: real time   23.20

 eigenvalue-minimisations  :   768
 total energy-change (2. order) : 0.9094202E+03  (-0.5880981E+04)
 number of electron     168.5000000 magnetization       0.0000000
 augmentation part      168.5000000 magnetization       0.0000000

 Free energy of the ion-electron system (eV)
  ---------------------------------------------------
  alpha Z        PSCENC =        12.91687988
  Ewald energy   TEWEN  =     23283.59746562
  -Hartree energ DENC   =    -28885.87890868
  -exchange      EXHF   =         0.00000000
  -V(xc)+E(xc)   XCENC  =       400.93948400
  PAW double counting   =      5890.45591622    -5710.10246236
  entropy T*S    EENTRO =        -0.00022080
  eigenvalues    EBANDS =     -1675.90789930
  atomic energy  EATOM  =      7593.39991119
  ---------------------------------------------------
  free energy    TOTEN  =       909.42016578 eV

  energy without entropy =      909.42038658  energy(sigma->0) =      909.42027618


--------------------------------------------------------------------------------------------------------




----------------------------------------- Iteration    1(   2)  ---------------------------------------


     EDDAV:  cpu time   19.16: real time   20.27
       DOS:  cpu time    0.01: real time    0.01
    --------------------------------------------
      LOOP:  cpu time   19.17: real time   20.28

 eigenvalue-minimisations  :  1024
 total energy-change (2. order) :-0.9788919E+03  (-0.9724964E+03)
 number of electron     168.5000000 magnetization       0.0000000
 augmentation part      168.5000000 magnetization       0.0000000

 Free energy of the ion-electron system (eV)
  ---------------------------------------------------
  alpha Z        PSCENC =        12.91687988
  Ewald energy   TEWEN  =     23283.59746562
  -Hartree energ DENC   =    -28885.87890868
  -exchange      EXHF   =         0.00000000
  -V(xc)+E(xc)   XCENC  =       400.93948400
  PAW double counting   =      5890.45591622    -5710.10246236
  entropy T*S    EENTRO =        -0.00000000
  eigenvalues    EBANDS =     -2654.80000294
  atomic energy  EATOM  =      7593.39991119
  ---------------------------------------------------
  free energy    TOTEN  =       -69.47171706 eV

  energy without entropy =      -69.47171706  energy(sigma->0) =      -69.47171706


--------------------------------------------------------------------------------------------------------




----------------------------------------- Iteration    1(   3)  ---------------------------------------


     EDDAV:  cpu time   16.03: real time   16.97
       DOS:  cpu time    0.00: real time    0.00
    --------------------------------------------
      LOOP:  cpu time   16.04: real time   16.97

 eigenvalue-minimisations  :   832
 total energy-change (2. order) :-0.3237653E+03  (-0.3233175E+03)
 number of electron     168.5000000 magnetization       0.0000000
 augmentation part      168.5000000 magnetization       0.0000000

 Free energy of the ion-electron system (eV)
  ---------------------------------------------------
  alpha Z        PSCENC =        12.91687988
  Ewald energy   TEWEN  =     23283.59746562
  -Hartree energ DENC   =    -28885.87890868
  -exchange      EXHF   =         0.00000000
  -V(xc)+E(xc)   XCENC  =       400.93948400
  PAW double counting   =      5890.45591622    -5710.10246236
  entropy T*S    EENTRO =        -0.00000000
  eigenvalues    EBANDS =     -2978.56533705
  atomic energy  EATOM  =      7593.39991119
  ---------------------------------------------------
  free energy    TOTEN  =      -393.23705117 eV

  energy without entropy =     -393.23705117  energy(sigma->0) =     -393.23705117


--------------------------------------------------------------------------------------------------------




----------------------------------------- Iteration    1(   4)  ---------------------------------------


     EDDAV:  cpu time   13.75: real time   14.58
       DOS:  cpu time    0.01: real time    0.01
    --------------------------------------------
      LOOP:  cpu time   13.76: real time   14.59

 eigenvalue-minimisations  :   704
 total energy-change (2. order) :-0.1899622E+02  (-0.1897184E+02)
 number of electron     168.5000000 magnetization       0.0000000
 augmentation part      168.5000000 magnetization       0.0000000

 Free energy of the ion-electron system (eV)
  ---------------------------------------------------
  alpha Z        PSCENC =        12.91687988
  Ewald energy   TEWEN  =     23283.59746562
  -Hartree energ DENC   =    -28885.87890868
  -exchange      EXHF   =         0.00000000
  -V(xc)+E(xc)   XCENC  =       400.93948400
  PAW double counting   =      5890.45591622    -5710.10246236
  entropy T*S    EENTRO =        -0.00000000
  eigenvalues    EBANDS =     -2997.56155831
  atomic energy  EATOM  =      7593.39991119
  ---------------------------------------------------
  free energy    TOTEN  =      -412.23327243 eV

  energy without entropy =     -412.23327243  energy(sigma->0) =     -412.23327243


--------------------------------------------------------------------------------------------------------




----------------------------------------- Iteration    1(   5)  ---------------------------------------


     EDDAV:  cpu time   16.97: real time   17.98
       DOS:  cpu time    0.01: real time    0.01
    CHARGE:  cpu time    4.88: real time    4.90
    MIXING:  cpu time    0.40: real time    0.41
    --------------------------------------------
      LOOP:  cpu time   22.26: real time   23.30

 eigenvalue-minimisations  :   896
 total energy-change (2. order) :-0.2255115E+00  (-0.2254102E+00)
 number of electron     166.0000000 magnetization       0.0000000
 augmentation part        3.5261742 magnetization       0.0000215

 Broyden mixing:
  rms(total) = 0.57605E+01    rms(broyden)= 0.57599E+01
  rms(prec ) = 0.61559E+01
  weight for this iteration     100.00

 Free energy of the ion-electron system (eV)
  ---------------------------------------------------
  alpha Z        PSCENC =        12.91687988
  Ewald energy   TEWEN  =     23283.59746562
  -Hartree energ DENC   =    -28885.87890868
  -exchange      EXHF   =         0.00000000
  -V(xc)+E(xc)   XCENC  =       400.93948400
  PAW double counting   =      5890.45591622    -5710.10246236
  entropy T*S    EENTRO =        -0.00000000
  eigenvalues    EBANDS =     -2997.78706978
  atomic energy  EATOM  =      7593.39991119
  ---------------------------------------------------
  free energy    TOTEN  =      -412.45878390 eV

  energy without entropy =     -412.45878390  energy(sigma->0) =     -412.45878390


--------------------------------------------------------------------------------------------------------




----------------------------------------- Iteration    1(   6)  ---------------------------------------


    POTLOK:  cpu time    4.60: real time    4.63
    SETDIJ:  cpu time    2.81: real time    2.82
     EDDAV:  cpu time   11.76: real time   12.51
       DOS:  cpu time    0.09: real time    0.09
    CHARGE:  cpu time    4.95: real time    4.95
    MIXING:  cpu time    0.28: real time    0.28
    --------------------------------------------
      LOOP:  cpu time   24.51: real time   25.29

 eigenvalue-minimisations  :   576
 total energy-change (2. order) : 0.1824547E+02  (-0.3897404E+02)
 number of electron     166.0000000 magnetization       0.0000000
 augmentation part        6.5243020 magnetization       0.0014374

 Broyden mixing:
  rms(total) = 0.39104E+01    rms(broyden)= 0.39103E+01
  rms(prec ) = 0.40866E+01
  weight for this iteration     100.00

 eigenvalues of (default mixing * dielectric matrix)
  average eigenvalue GAMMA=   1.0337
  1.0337

 Free energy of the ion-electron system (eV)
  ---------------------------------------------------
  alpha Z        PSCENC =        12.91687988
  Ewald energy   TEWEN  =     23283.59746562
  -Hartree energ DENC   =    -28886.17520969
  -exchange      EXHF   =         0.00000000
  -V(xc)+E(xc)   XCENC  =       406.45959081
  PAW double counting   =     20874.03228768   -20706.77902427
  entropy T*S    EENTRO =        -0.00000000
  eigenvalues    EBANDS =     -2971.66521238
  atomic energy  EATOM  =      7593.39991119
  ---------------------------------------------------
  free energy    TOTEN  =      -394.21331115 eV

  energy without entropy =     -394.21331115  energy(sigma->0) =     -394.21331115


--------------------------------------------------------------------------------------------------------




----------------------------------------- Iteration    1(   7)  ---------------------------------------


    POTLOK:  cpu time    4.64: real time    4.67
    SETDIJ:  cpu time    2.78: real time    2.78
     EDDAV:  cpu time   13.96: real time   15.14
       DOS:  cpu time    0.04: real time    0.04
    CHARGE:  cpu time    4.90: real time    4.91
    MIXING:  cpu time    0.29: real time    0.29
    --------------------------------------------
      LOOP:  cpu time   26.62: real time   27.84

 eigenvalue-minimisations  :   704
 total energy-change (2. order) : 0.1095052E+02  (-0.2367854E+01)
 number of electron     166.0000000 magnetization       0.0000000
 augmentation part        5.5992481 magnetization      -0.0005702

 Broyden mixing:
  rms(total) = 0.23873E+01    rms(broyden)= 0.23872E+01
  rms(prec ) = 0.24629E+01
  weight for this iteration     100.00

 eigenvalues of (default mixing * dielectric matrix)
  average eigenvalue GAMMA=   1.4046
  0.7532  2.0560

 Free energy of the ion-electron system (eV)
  ---------------------------------------------------
  alpha Z        PSCENC =        12.91687988
  Ewald energy   TEWEN  =     23283.59746562
  -Hartree energ DENC   =    -29017.06343920
  -exchange      EXHF   =         0.00000000
  -V(xc)+E(xc)   XCENC  =       411.82143765
  PAW double counting   =     36103.54633702   -35931.42326429
  entropy T*S    EENTRO =        -0.00000000
  eigenvalues    EBANDS =     -2840.05811689
  atomic energy  EATOM  =      7593.39991119
  ---------------------------------------------------
  free energy    TOTEN  =      -383.26278902 eV

  energy without entropy =     -383.26278902  energy(sigma->0) =     -383.26278902


--------------------------------------------------------------------------------------------------------




----------------------------------------- Iteration    1(   8)  ---------------------------------------


    POTLOK:  cpu time    4.56: real time    4.57
    SETDIJ:  cpu time    2.82: real time    2.87
     EDDAV:  cpu time   15.17: real time   16.41
       DOS:  cpu time    0.05: real time    0.05
    CHARGE:  cpu time    4.82: real time    4.84
    MIXING:  cpu time    0.38: real time    0.38
    --------------------------------------------
      LOOP:  cpu time   27.79: real time   29.12

 eigenvalue-minimisations  :   768
 total energy-change (2. order) : 0.4413552E+01  (-0.1763107E+01)
 number of electron     166.0000000 magnetization       0.0000000
 augmentation part        4.8776774 magnetization      -0.0001260

 Broyden mixing:
  rms(total) = 0.98078E+00    rms(broyden)= 0.98074E+00
  rms(prec ) = 0.10596E+01
  weight for this iteration     100.00

 eigenvalues of (default mixing * dielectric matrix)
  average eigenvalue GAMMA=   1.4517
  2.6829  0.8361  0.8361

 Free energy of the ion-electron system (eV)
  ---------------------------------------------------
  alpha Z        PSCENC =        12.91687988
  Ewald energy   TEWEN  =     23283.59746562
  -Hartree energ DENC   =    -29169.50705159
  -exchange      EXHF   =         0.00000000
  -V(xc)+E(xc)   XCENC  =       419.58901386
  PAW double counting   =     68253.05608682   -68077.62284595
  entropy T*S    EENTRO =        -0.00000000
  eigenvalues    EBANDS =     -2694.27869699
  atomic energy  EATOM  =      7593.39991119
  ---------------------------------------------------
  free energy    TOTEN  =      -378.84923715 eV

  energy without entropy =     -378.84923715  energy(sigma->0) =     -378.84923715


--------------------------------------------------------------------------------------------------------




----------------------------------------- Iteration    1(   9)  ---------------------------------------


    POTLOK:  cpu time    4.54: real time    4.56
    SETDIJ:  cpu time    2.78: real time    2.78
     EDDAV:  cpu time   15.03: real time   16.28
       DOS:  cpu time    0.04: real time    0.04
    CHARGE:  cpu time    5.03: real time    5.04
    MIXING:  cpu time    0.29: real time    0.29
    --------------------------------------------
      LOOP:  cpu time   27.71: real time   28.99

 eigenvalue-minimisations  :   768
 total energy-change (2. order) : 0.1212986E+01  (-0.4977965E+00)
 number of electron     166.0000000 magnetization       0.0000000
 augmentation part        5.2276809 magnetization       0.0000067

 Broyden mixing:
  rms(total) = 0.37022E+00    rms(broyden)= 0.37019E+00
  rms(prec ) = 0.40814E+00
  weight for this iteration     100.00

 eigenvalues of (default mixing * dielectric matrix)
  average eigenvalue GAMMA=   1.3157
  2.5530  1.0762  0.8167  0.8167

 Free energy of the ion-electron system (eV)
  ---------------------------------------------------
  alpha Z        PSCENC =        12.91687988
  Ewald energy   TEWEN  =     23283.59746562
  -Hartree energ DENC   =    -29194.09849279
  -exchange      EXHF   =         0.00000000
  -V(xc)+E(xc)   XCENC  =       422.49829445
  PAW double counting   =     82438.87531272   -82265.22938105
  entropy T*S    EENTRO =        -0.00000000
  eigenvalues    EBANDS =     -2669.59624099
  atomic energy  EATOM  =      7593.39991119
  ---------------------------------------------------
  free energy    TOTEN  =      -377.63625097 eV

  energy without entropy =     -377.63625097  energy(sigma->0) =     -377.63625097


--------------------------------------------------------------------------------------------------------




----------------------------------------- Iteration    1(  10)  ---------------------------------------


    POTLOK:  cpu time    4.56: real time    4.58
    SETDIJ:  cpu time    2.76: real time    2.76
     EDDAV:  cpu time   15.39: real time   16.62
       DOS:  cpu time    0.04: real time    0.04
    CHARGE:  cpu time    4.92: real time    4.93
    MIXING:  cpu time    0.25: real time    0.25
    --------------------------------------------
      LOOP:  cpu time   27.92: real time   29.19

 eigenvalue-minimisations  :   768
 total energy-change (2. order) : 0.5449229E-01  (-0.4353368E-01)
 number of electron     166.0000000 magnetization       0.0000000
 augmentation part        5.3312513 magnetization       0.0000451

 Broyden mixing:
  rms(total) = 0.25886E+00    rms(broyden)= 0.25885E+00
  rms(prec ) = 0.30175E+00
  weight for this iteration     100.00

 eigenvalues of (default mixing * dielectric matrix)
  average eigenvalue GAMMA=   1.2859
  2.4903  1.4895  0.7836  0.7836  0.8827

 Free energy of the ion-electron system (eV)
  ---------------------------------------------------
  alpha Z        PSCENC =        12.91687988
  Ewald energy   TEWEN  =     23283.59746562
  -Hartree energ DENC   =    -29181.64277515
  -exchange      EXHF   =         0.00000000
  -V(xc)+E(xc)   XCENC  =       422.51224588
  PAW double counting   =     81425.10295665   -81251.99522907
  entropy T*S    EENTRO =        -0.00000000
  eigenvalues    EBANDS =     -2681.47321369
  atomic energy  EATOM  =      7593.39991119
  ---------------------------------------------------
  free energy    TOTEN  =      -377.58175868 eV

  energy without entropy =     -377.58175868  energy(sigma->0) =     -377.58175868


--------------------------------------------------------------------------------------------------------




----------------------------------------- Iteration    1(  11)  ---------------------------------------


    POTLOK:  cpu time    4.56: real time    4.58
    SETDIJ:  cpu time    2.77: real time    2.77
     EDDAV:  cpu time   15.03: real time   16.28
       DOS:  cpu time    0.05: real time    0.05
    CHARGE:  cpu time    4.97: real time    4.97
    MIXING:  cpu time    0.34: real time    0.34
    --------------------------------------------
      LOOP:  cpu time   27.72: real time   28.99

 eigenvalue-minimisations  :   768
 total energy-change (2. order) : 0.1192224E+00  (-0.1101421E-01)
 number of electron     166.0000000 magnetization       0.0000000
 augmentation part        5.2905008 magnetization      -0.0000093

 Broyden mixing:
  rms(total) = 0.13109E+00    rms(broyden)= 0.13109E+00
  rms(prec ) = 0.17258E+00
  weight for this iteration     100.00

 eigenvalues of (default mixing * dielectric matrix)
  average eigenvalue GAMMA=   1.4048
  2.4936  2.4936  1.0413  0.8669  0.8669  0.6669

 Free energy of the ion-electron system (eV)
  ---------------------------------------------------
  alpha Z        PSCENC =        12.91687988
  Ewald energy   TEWEN  =     23283.59746562
  -Hartree energ DENC   =    -29180.14449919
  -exchange      EXHF   =         0.00000000
  -V(xc)+E(xc)   XCENC  =       423.09317644
  PAW double counting   =     81789.78355502   -81616.52452259
  entropy T*S    EENTRO =        -0.00000000
  eigenvalues    EBANDS =     -2683.58450266
  atomic energy  EATOM  =      7593.39991119
  ---------------------------------------------------
  free energy    TOTEN  =      -377.46253627 eV

  energy without entropy =     -377.46253627  energy(sigma->0) =     -377.46253627


--------------------------------------------------------------------------------------------------------




----------------------------------------- Iteration    1(  12)  ---------------------------------------


    POTLOK:  cpu time    4.55: real time    4.58
    SETDIJ:  cpu time    2.77: real time    2.77
     EDDAV:  cpu time   15.42: real time   16.65
       DOS:  cpu time    0.05: real time    0.05
    CHARGE:  cpu time    4.80: real time    4.80
    MIXING:  cpu time    0.33: real time    0.33
    --------------------------------------------
      LOOP:  cpu time   27.91: real time   29.17

 eigenvalue-minimisations  :   768
 total energy-change (2. order) : 0.7919844E-01  (-0.7844084E-02)
 number of electron     166.0000000 magnetization       0.0000000
 augmentation part        5.2585879 magnetization       0.0000631

 Broyden mixing:
  rms(total) = 0.70036E-01    rms(broyden)= 0.70034E-01
  rms(prec ) = 0.10510E+00
  weight for this iteration     100.00

 eigenvalues of (default mixing * dielectric matrix)
  average eigenvalue GAMMA=   1.4159
  2.7671  2.7671  1.0020  1.0020  0.8692  0.8692  0.6349

 Free energy of the ion-electron system (eV)
  ---------------------------------------------------
  alpha Z        PSCENC =        12.91687988
  Ewald energy   TEWEN  =     23283.59746562
  -Hartree energ DENC   =    -29176.21893627
  -exchange      EXHF   =         0.00000000
  -V(xc)+E(xc)   XCENC  =       423.67295475
  PAW double counting   =     81760.03358587   -81586.70267946
  entropy T*S    EENTRO =        -0.00000000
  eigenvalues    EBANDS =     -2688.08251943
  atomic energy  EATOM  =      7593.39991119
  ---------------------------------------------------
  free energy    TOTEN  =      -377.38333784 eV

  energy without entropy =     -377.38333784  energy(sigma->0) =     -377.38333784


--------------------------------------------------------------------------------------------------------




----------------------------------------- Iteration    1(  13)  ---------------------------------------


    POTLOK:  cpu time    4.53: real time    4.57
    SETDIJ:  cpu time    2.78: real time    2.79
     EDDAV:  cpu time   15.02: real time   16.26
       DOS:  cpu time    0.05: real time    0.05
    CHARGE:  cpu time    4.97: real time    4.97
    MIXING:  cpu time    0.26: real time    0.26
    --------------------------------------------
      LOOP:  cpu time   27.62: real time   28.89

 eigenvalue-minimisations  :   768
 total energy-change (2. order) : 0.2466377E-01  (-0.1582610E-02)
 number of electron     166.0000000 magnetization       0.0000000
 augmentation part        5.2600225 magnetization      -0.0000117

 Broyden mixing:
  rms(total) = 0.51398E-01    rms(broyden)= 0.51398E-01
  rms(prec ) = 0.79519E-01
  weight for this iteration     100.00

 eigenvalues of (default mixing * dielectric matrix)
  average eigenvalue GAMMA=   1.5500
  3.0398  3.0398  1.8151  0.8736  0.8736  1.0650  1.0650  0.6283

 Free energy of the ion-electron system (eV)
  ---------------------------------------------------
  alpha Z        PSCENC =        12.91687988
  Ewald energy   TEWEN  =     23283.59746562
  -Hartree energ DENC   =    -29170.19554137
  -exchange      EXHF   =         0.00000000
  -V(xc)+E(xc)   XCENC  =       423.92850003
  PAW double counting   =     81306.99881828   -81133.73412596
  entropy T*S    EENTRO =        -0.00000000
  eigenvalues    EBANDS =     -2694.27058173
  atomic energy  EATOM  =      7593.39991119
  ---------------------------------------------------
  free energy    TOTEN  =      -377.35867407 eV

  energy without entropy =     -377.35867407  energy(sigma->0) =     -377.35867407


--------------------------------------------------------------------------------------------------------




----------------------------------------- Iteration    1(  14)  ---------------------------------------


    POTLOK:  cpu time    4.56: real time    4.58
    SETDIJ:  cpu time    2.78: real time    2.78
     EDDAV:  cpu time   15.21: real time   16.45
       DOS:  cpu time    0.05: real time    0.05
    CHARGE:  cpu time    4.93: real time    4.95
    MIXING:  cpu time    0.34: real time    0.34
    --------------------------------------------
      LOOP:  cpu time   27.86: real time   29.14

 eigenvalue-minimisations  :   768
 total energy-change (2. order) : 0.1769680E-01  (-0.2841221E-02)
 number of electron     166.0000000 magnetization       0.0000000
 augmentation part        5.2604881 magnetization       0.0000226

 Broyden mixing:
  rms(total) = 0.28669E-01    rms(broyden)= 0.28667E-01
  rms(prec ) = 0.44552E-01
  weight for this iteration     100.00

 eigenvalues of (default mixing * dielectric matrix)
  average eigenvalue GAMMA=   1.6191
  4.4424  2.5335  2.1787  1.2443  0.8707  0.8707  0.9028  0.9028  0.6264

 Free energy of the ion-electron system (eV)
  ---------------------------------------------------
  alpha Z        PSCENC =        12.91687988
  Ewald energy   TEWEN  =     23283.59746562
  -Hartree energ DENC   =    -29158.28035820
  -exchange      EXHF   =         0.00000000
  -V(xc)+E(xc)   XCENC  =       424.30210439
  PAW double counting   =     80986.88883768   -80813.70534124
  entropy T*S    EENTRO =        -0.00000000
  eigenvalues    EBANDS =     -2706.46047659
  atomic energy  EATOM  =      7593.39991119
  ---------------------------------------------------
  free energy    TOTEN  =      -377.34097727 eV

  energy without entropy =     -377.34097727  energy(sigma->0) =     -377.34097727


--------------------------------------------------------------------------------------------------------




----------------------------------------- Iteration    1(  15)  ---------------------------------------


    POTLOK:  cpu time    4.56: real time    4.59
    SETDIJ:  cpu time    2.78: real time    2.79
     EDDAV:  cpu time   15.00: real time   16.28
       DOS:  cpu time    0.05: real time    0.05
    CHARGE:  cpu time    4.88: real time    4.89
    MIXING:  cpu time    0.35: real time    0.35
    --------------------------------------------
      LOOP:  cpu time   27.63: real time   28.96

 eigenvalue-minimisations  :   768
 total energy-change (2. order) : 0.1784618E-03  (-0.7061135E-03)
 number of electron     166.0000000 magnetization       0.0000000
 augmentation part        5.2595486 magnetization      -0.0000283

 Broyden mixing:
  rms(total) = 0.24794E-01    rms(broyden)= 0.24793E-01
  rms(prec ) = 0.33778E-01
  weight for this iteration     100.00

 eigenvalues of (default mixing * dielectric matrix)
  average eigenvalue GAMMA=   1.6190
  4.8246  2.4828  1.7768  1.7768  1.1131  1.1131  0.8694  0.8694  0.7387  0.6258

 Free energy of the ion-electron system (eV)
  ---------------------------------------------------
  alpha Z        PSCENC =        12.91687988
  Ewald energy   TEWEN  =     23283.59746562
  -Hartree energ DENC   =    -29150.68955267
  -exchange      EXHF   =         0.00000000
  -V(xc)+E(xc)   XCENC  =       424.43716896
  PAW double counting   =     81018.11804902   -80844.93577384
  entropy T*S    EENTRO =        -0.00000000
  eigenvalues    EBANDS =     -2714.18494698
  atomic energy  EATOM  =      7593.39991119
  ---------------------------------------------------
  free energy    TOTEN  =      -377.34079881 eV

  energy without entropy =     -377.34079881  energy(sigma->0) =     -377.34079881


--------------------------------------------------------------------------------------------------------




----------------------------------------- Iteration    1(  16)  ---------------------------------------


    POTLOK:  cpu time    4.57: real time    4.60
    SETDIJ:  cpu time    2.75: real time    2.76
     EDDAV:  cpu time   15.20: real time   16.45
       DOS:  cpu time    0.04: real time    0.04
    CHARGE:  cpu time    4.97: real time    4.98
    MIXING:  cpu time    0.29: real time    0.29
    --------------------------------------------
      LOOP:  cpu time   27.82: real time   29.12

 eigenvalue-minimisations  :   768
 total energy-change (2. order) :-0.1015034E-01  (-0.1952485E-03)
 number of electron     166.0000000 magnetization       0.0000000
 augmentation part        5.2596614 magnetization       0.0000252

 Broyden mixing:
  rms(total) = 0.13030E-01    rms(broyden)= 0.13029E-01
  rms(prec ) = 0.19950E-01
  weight for this iteration     100.00

 eigenvalues of (default mixing * dielectric matrix)
  average eigenvalue GAMMA=   1.7197
  5.5720  2.5267  2.5267  2.0188  1.3482  0.8771  0.8771  0.9084  0.9084  0.6258
  0.7276

 Free energy of the ion-electron system (eV)
  ---------------------------------------------------
  alpha Z        PSCENC =        12.91687988
  Ewald energy   TEWEN  =     23283.59746562
  -Hartree energ DENC   =    -29142.56874554
  -exchange      EXHF   =         0.00000000
  -V(xc)+E(xc)   XCENC  =       424.40224781
  PAW double counting   =     81132.15369232   -80958.94026297
  entropy T*S    EENTRO =        -0.00000000
  eigenvalues    EBANDS =     -2722.31213747
  atomic energy  EATOM  =      7593.39991119
  ---------------------------------------------------
  free energy    TOTEN  =      -377.35094915 eV

  energy without entropy =     -377.35094915  energy(sigma->0) =     -377.35094915


--------------------------------------------------------------------------------------------------------




----------------------------------------- Iteration    1(  17)  ---------------------------------------


    POTLOK:  cpu time    4.58: real time    4.60
    SETDIJ:  cpu time    2.78: real time    2.79
     EDDAV:  cpu time   15.05: real time   16.27
       DOS:  cpu time    0.05: real time    0.05
    CHARGE:  cpu time    4.98: real time    4.99
    MIXING:  cpu time    0.36: real time    0.36
    --------------------------------------------
      LOOP:  cpu time   27.81: real time   29.06

 eigenvalue-minimisations  :   768
 total energy-change (2. order) :-0.6198753E-02  (-0.1433308E-03)
 number of electron     166.0000000 magnetization       0.0000000
 augmentation part        5.2615789 magnetization      -0.0000181

 Broyden mixing:
  rms(total) = 0.86574E-02    rms(broyden)= 0.86572E-02
  rms(prec ) = 0.12219E-01
  weight for this iteration     100.00

 eigenvalues of (default mixing * dielectric matrix)
  average eigenvalue GAMMA=   1.7552
  6.3566  2.7794  2.7794  1.5959  1.5959  0.8742  0.8742  1.0173  1.0173  0.8739
  0.6245  0.6736

 Free energy of the ion-electron system (eV)
  ---------------------------------------------------
  alpha Z        PSCENC =        12.91687988
  Ewald energy   TEWEN  =     23283.59746562
  -Hartree energ DENC   =    -29135.40208972
  -exchange      EXHF   =         0.00000000
  -V(xc)+E(xc)   XCENC  =       424.37011414
  PAW double counting   =     81165.30646840   -80992.08621195
  entropy T*S    EENTRO =        -0.00000000
  eigenvalues    EBANDS =     -2729.45968547
  atomic energy  EATOM  =      7593.39991119
  ---------------------------------------------------
  free energy    TOTEN  =      -377.35714790 eV

  energy without entropy =     -377.35714790  energy(sigma->0) =     -377.35714790


--------------------------------------------------------------------------------------------------------




----------------------------------------- Iteration    1(  18)  ---------------------------------------


    POTLOK:  cpu time    4.58: real time    4.60
    SETDIJ:  cpu time    2.78: real time    2.79
     EDDAV:  cpu time   17.26: real time   18.74
       DOS:  cpu time    0.04: real time    0.04
    CHARGE:  cpu time    5.01: real time    5.01
    MIXING:  cpu time    0.28: real time    0.28
    --------------------------------------------
      LOOP:  cpu time   29.95: real time   31.46

 eigenvalue-minimisations  :   896
 total energy-change (2. order) :-0.3925347E-02  (-0.4613828E-04)
 number of electron     166.0000000 magnetization       0.0000000
 augmentation part        5.2625141 magnetization       0.0000188

 Broyden mixing:
  rms(total) = 0.68291E-02    rms(broyden)= 0.68289E-02
  rms(prec ) = 0.90840E-02
  weight for this iteration     100.00

 eigenvalues of (default mixing * dielectric matrix)
[...]
 12.565   0.000  21.164   0.000   0.002   0.000  -0.003   0.000  -0.004   0.000   0.003   0.000  -0.005   0.000  -0.006   0.000
 21.164   0.000  35.645   0.000   0.003   0.000  -0.005   0.000  -0.006   0.000   0.005   0.000  -0.008   0.000  -0.011   0.000
  0.002   0.000   0.003   0.000  -3.542   0.000   0.001   0.000  -0.000   0.000  -6.365   0.000   0.001   0.000  -0.000   0.000
 -0.003   0.000  -0.005   0.000   0.001   0.000  -3.542   0.000  -0.000   0.000   0.001   0.000  -6.365   0.000  -0.000   0.000
 -0.004   0.000  -0.006   0.000  -0.000   0.000  -0.000   0.000  -3.542   0.000  -0.000   0.000  -0.000   0.000  -6.366   0.000
  0.003   0.000   0.005   0.000  -6.365   0.000   0.001   0.000  -0.000   0.000 -11.418   0.000   0.003   0.000  -0.001   0.000
 -0.005   0.000  -0.008   0.000   0.001   0.000  -6.365   0.000  -0.000   0.000   0.003   0.000 -11.418   0.000  -0.001   0.000
 -0.006   0.000  -0.011   0.000  -0.000   0.000  -0.000   0.000  -6.366   0.000  -0.001   0.000  -0.001   0.000 -11.419   0.000
 pseudopotential strength for first ion, spin component:           2
 12.565   0.000  21.164   0.000   0.002   0.000  -0.003   0.000  -0.004   0.000   0.003   0.000  -0.005   0.000  -0.006   0.000
 21.164   0.000  35.645   0.000   0.003   0.000  -0.005   0.000  -0.006   0.000   0.005   0.000  -0.008   0.000  -0.011   0.000
  0.002   0.000   0.003   0.000  -3.542   0.000   0.001   0.000  -0.000   0.000  -6.365   0.000   0.001   0.000  -0.000   0.000
 -0.003   0.000  -0.005   0.000   0.001   0.000  -3.542   0.000  -0.000   0.000   0.001   0.000  -6.365   0.000  -0.000   0.000
 -0.004   0.000  -0.006   0.000  -0.000   0.000  -0.000   0.000  -3.542   0.000  -0.000   0.000  -0.000   0.000  -6.366   0.000
  0.003   0.000   0.005   0.000  -6.365   0.000   0.001   0.000  -0.000   0.000 -11.418   0.000   0.003   0.000  -0.001   0.000
 -0.005   0.000  -0.008   0.000   0.001   0.000  -6.365   0.000  -0.000   0.000   0.003   0.000 -11.418   0.000  -0.001   0.000
 -0.006   0.000  -0.011   0.000  -0.000   0.000  -0.000   0.000  -6.366   0.000  -0.001   0.000  -0.001   0.000 -11.419   0.000
 total augmentation occupancy for first ion, spin component:           1
  1.087  -0.106   0.007  -0.136  -0.516   0.004   0.045   0.196
 -0.106   0.378  -0.010   0.068   0.232  -0.003  -0.014  -0.071
  0.007  -0.010   2.049  -1.234   0.267  -0.265   0.381  -0.073
 -0.136   0.068  -1.234   2.004   0.225   0.381  -0.252  -0.063
 -0.516   0.232   0.267   0.225   2.652  -0.073  -0.063  -0.389
  0.004  -0.003  -0.265   0.381  -0.073   0.131  -0.053   0.006
  0.045  -0.014   0.381  -0.252  -0.063  -0.053   0.127  -0.000
  0.196  -0.071  -0.073  -0.063  -0.389   0.006  -0.000   0.099
 total augmentation occupancy for first ion, spin component:           2
 -0.000   0.000  -0.000   0.000   0.000   0.000  -0.000  -0.000
  0.000  -0.000   0.000  -0.000  -0.000  -0.000   0.000   0.000
 -0.000   0.000  -0.000  -0.000  -0.000   0.000  -0.000   0.000
  0.000  -0.000  -0.000  -0.000   0.000  -0.000   0.000  -0.000
  0.000  -0.000  -0.000   0.000  -0.000   0.000  -0.000  -0.000
  0.000  -0.000   0.000  -0.000   0.000   0.000   0.000  -0.000
 -0.000   0.000  -0.000   0.000  -0.000   0.000   0.000  -0.000
 -0.000   0.000   0.000  -0.000  -0.000  -0.000  -0.000   0.000


------------------------ aborting loop because EDIFF is reached ----------------------------------------


    CHARGE:  cpu time    4.92: real time    4.92
    FORLOC:  cpu time    0.81: real time    0.81
    FORNL :  cpu time   19.14: real time   19.21
    STRESS:  cpu time   60.17: real time   60.34
    FORCOR:  cpu time    4.31: real time    4.33
    FORHAR:  cpu time    0.99: real time    0.99
    MIXING:  cpu time    0.20: real time    0.20
    OFIELD:  cpu time    0.00: real time    0.00

  FORCE on cell =-STRESS in cart. coord.  units (eV):
  Direction    XX          YY          ZZ          XY          YZ          ZX
  --------------------------------------------------------------------------------------
  Alpha Z    12.91688    12.91688    12.91688
  Ewald   11167.98236  5597.86130  6517.73936   360.79177 -1620.03328   933.20997
  Hartree 12530.63752  7809.22823  8785.47855    82.27902 -1462.62936   742.48674
  E(xc)    -688.96046  -691.45688  -692.11456     1.42108    -0.22195     0.67849
  Local  -26071.10849-15811.07116-17727.01870  -421.37412  3077.68149 -1674.91867
  n-local   -28.80796   -28.47014   -31.99688     3.54598    -1.42801    -0.95623
  augment    83.20024    84.13907    82.89113     1.65522    -0.06511     0.25081
  Kinetic  2979.18812  3012.34354  3037.48569   -28.50823     8.47166    -1.15138
  Fock        0.00000     0.00000     0.00000     0.00000     0.00000     0.00000
  -------------------------------------------------------------------------------------
  Total     -14.95179   -14.50916   -14.61852    -0.18929     1.77544    -0.40027
  in kB      -2.99443    -2.90578    -2.92768    -0.03791     0.35557    -0.08016
  external pressure =       -2.94 kB  Pullay stress =        0.00 kB


 VOLUME and BASIS-vectors are now :
 -----------------------------------------------------------------------------
  energy-cutoff  :      700.00
  volume of cell :     8000.00
      direct lattice vectors                 reciprocal lattice vectors
    20.000000000  0.000000000  0.000000000     0.050000000  0.000000000  0.000000000
     0.000000000 20.000000000  0.000000000     0.000000000  0.050000000  0.000000000
     0.000000000  0.000000000 20.000000000     0.000000000  0.000000000  0.050000000

  length of vectors
    20.000000000 20.000000000 20.000000000     0.050000000  0.050000000  0.050000000


 FORCES acting on ions
    electron-ion (+dipol)            ewald-force                    non-local-force                 convergence-correction
 -----------------------------------------------------------------------------------------------
   -.289E+03 0.161E+03 -.204E+03   0.291E+03 -.162E+03 0.205E+03   -.232E+01 0.111E+01 -.181E+01   0.643E-04 -.141E-04 0.247E-05
   0.879E+02 -.916E+01 0.333E+03   -.886E+02 0.944E+01 -.335E+03   0.661E+00 -.287E+00 0.184E+01   -.533E-05 0.531E-05 -.479E-04
   0.681E+02 0.802E+02 0.318E+03   -.702E+02 -.823E+02 -.324E+03   0.217E+01 0.208E+01 0.640E+01   0.295E-05 -.221E-04 0.290E-04
   0.392E+01 -.318E+03 0.299E+02   -.421E+01 0.325E+03 -.294E+02   0.302E+00 -.698E+01 -.481E+00   0.254E-05 -.381E-04 0.198E-04
   0.363E+02 -.325E+03 0.105E+03   -.367E+02 0.327E+03 -.106E+03   0.369E+00 -.179E+01 0.649E+00   0.291E-05 0.298E-04 -.316E-04
   0.804E+02 -.208E+03 0.263E+03   -.810E+02 0.209E+03 -.265E+03   0.539E+00 -.113E+01 0.140E+01   -.286E-05 0.465E-04 -.639E-04
   0.779E+02 0.269E+03 -.219E+03   -.797E+02 -.271E+03 0.220E+03   0.176E+01 0.176E+01 -.140E+01   -.178E-04 -.672E-04 0.498E-04
   0.154E+03 0.255E+03 -.163E+03   -.159E+03 -.260E+03 0.167E+03   0.484E+01 0.448E+01 -.328E+01   -.479E-04 0.107E-04 -.137E-04
   -.221E+03 0.117E+03 -.130E+03   0.225E+03 -.115E+03 0.130E+03   -.321E+01 -.248E+01 0.128E+01   0.169E-04 0.455E-04 -.515E-04
   0.323E+03 -.350E+02 -.116E+03   -.325E+03 0.348E+02 0.117E+03   0.238E+01 0.214E+00 -.264E+00   -.162E-04 0.133E-04 0.275E-04
   -.338E+03 -.703E+02 -.303E+00   0.340E+03 0.712E+02 0.485E-01   -.220E+01 -.810E+00 0.260E+00   0.554E-04 0.248E-04 -.107E-04
   -.258E+03 -.193E+03 0.138E+03   0.259E+03 0.194E+03 -.138E+03   -.146E+01 -.139E+01 0.913E+00   0.499E-04 0.333E-04 -.247E-04
   -.181E+03 -.214E+03 0.187E+03   0.184E+03 0.220E+03 -.191E+03   -.311E+01 -.533E+01 0.433E+01   -.112E-04 -.110E-04 -.113E-04
   -.264E+03 0.617E+02 -.901E+02   0.270E+03 -.623E+02 0.920E+02   -.536E+01 0.632E+00 -.186E+01   -.134E-04 0.747E-05 -.277E-04
   -.316E+03 0.596E+02 -.111E+03   0.318E+03 -.589E+02 0.111E+03   -.233E+01 -.698E+00 0.913E-01   0.637E-05 -.907E-05 -.640E-06
   -.116E+03 0.239E+03 -.244E+03   0.114E+03 -.243E+03 0.247E+03   0.235E+01 0.459E+01 -.402E+01   0.286E-04 -.854E-04 0.676E-04
   0.272E+03 -.295E+02 -.103E+03   -.277E+03 0.313E+02 0.106E+03   0.512E+01 -.182E+01 -.269E+01   0.119E-04 0.348E-04 0.565E-05
   0.127E+03 -.218E+03 -.261E+03   -.128E+03 0.219E+03 0.262E+03   0.718E+00 -.131E+01 -.157E+01   -.406E-04 0.560E-04 0.459E-04
   -.740E+02 -.256E+03 -.246E+03   0.743E+02 0.258E+03 0.247E+03   -.265E+00 -.147E+01 -.151E+01   -.241E-04 0.391E-04 0.207E-04
   -.157E+03 -.237E+03 -.196E+03   0.161E+03 0.242E+03 0.200E+03   -.387E+01 -.483E+01 -.417E+01   -.228E-04 -.321E-04 -.367E-04
   0.233E+03 -.963E+02 -.158E+03   -.239E+03 0.972E+02 0.160E+03   0.574E+01 -.945E+00 -.267E+01   0.233E-04 0.362E-05 -.291E-04
   0.265E+03 -.124E+03 -.200E+03   -.267E+03 0.126E+03 0.202E+03   0.128E+01 -.126E+01 -.178E+01   -.277E-04 0.172E-04 -.277E-05
   0.148E+03 0.264E+03 0.193E+03   -.151E+03 -.269E+03 -.197E+03   0.342E+01 0.487E+01 0.410E+01   -.928E-05 -.101E-04 -.318E-04
   0.241E+03 0.223E+03 0.143E+03   -.243E+03 -.224E+03 -.144E+03   0.159E+01 0.115E+01 0.818E+00   -.452E-04 -.470E-04 -.420E-04
   0.337E+03 0.955E+02 0.326E+01   -.339E+03 -.960E+02 -.343E+01   0.193E+01 0.517E+00 0.157E+00   -.449E-04 -.358E-04 0.568E-05
   0.457E+02 0.807E+02 -.637E+02   -.493E+02 -.846E+02 0.666E+02   0.369E+01 0.383E+01 -.289E+01   -.396E-05 -.199E-04 0.137E-04
   -.414E+02 0.705E+02 -.766E+02   0.439E+02 -.741E+02 0.808E+02   -.239E+01 0.370E+01 -.426E+01   0.263E-05 -.196E-04 0.127E-04
   -.106E+03 0.274E+02 -.498E+02   0.111E+03 -.272E+02 0.509E+02   -.612E+01 -.292E+00 -.129E+01   0.116E-04 -.491E-05 0.459E-06
   -.406E+02 0.149E+03 0.161E+02   0.423E+02 -.157E+03 -.129E+02   -.178E+01 0.756E+01 -.334E+01   -.742E-05 0.220E-04 0.192E-05
   0.101E+03 -.225E+02 -.517E+02   -.107E+03 0.221E+02 0.529E+02   0.582E+01 0.409E+00 -.121E+01   -.110E-04 0.788E-05 0.793E-05
   0.803E+02 0.678E+02 -.316E+02   -.863E+02 -.679E+02 0.302E+02   0.595E+01 0.121E+00 0.136E+01   -.294E-05 0.333E-05 -.268E-05
   0.267E+02 -.663E+02 0.813E+02   -.282E+02 0.701E+02 -.858E+02   0.154E+01 -.371E+01 0.448E+01   -.298E-05 0.198E-04 -.262E-04
   0.594E+01 -.110E+03 0.887E+01   -.590E+01 0.116E+03 -.780E+01   -.326E-01 -.588E+01 -.107E+01   0.170E-06 0.236E-04 -.988E-05
   -.141E+02 -.101E+03 -.343E+02   0.156E+02 0.103E+03 0.397E+02   -.154E+01 -.210E+01 -.539E+01   -.121E-05 -.921E-05 0.421E-05
   -.101E+03 0.258E+02 0.116E+03   0.108E+03 -.235E+02 -.121E+03   -.651E+01 -.229E+01 0.485E+01   -.113E-04 0.987E-05 0.142E-04
   -.921E+02 0.381E+02 -.532E+02   0.955E+02 -.412E+02 0.569E+02   -.333E+01 0.319E+01 -.372E+01   0.521E-05 0.104E-05 -.393E-05
   -.660E+02 -.714E+02 0.547E+02   0.685E+02 0.757E+02 -.582E+02   -.246E+01 -.428E+01 0.347E+01   0.149E-04 0.708E-05 -.529E-05
   0.175E+02 0.710E+02 0.885E+02   -.176E+02 -.770E+02 -.892E+02   0.517E-01 0.596E+01 0.729E+00   0.404E-06 -.605E-05 0.499E-05
   0.425E+01 0.904E+02 0.774E+02   -.672E+00 -.934E+02 -.812E+02   -.358E+01 0.300E+01 0.375E+01   -.410E-06 -.120E-05 -.643E-05
   0.603E+02 0.771E+02 0.571E+02   -.626E+02 -.813E+02 -.607E+02   0.229E+01 0.426E+01 0.356E+01   -.138E-04 -.118E-04 -.855E-05
   -.105E+03 -.198E+02 -.440E+01   0.111E+03 0.208E+02 0.486E+01   -.594E+01 -.958E+00 -.461E+00   0.208E-04 0.923E-05 -.438E-05
   -.836E+02 -.642E+02 -.381E+02   0.894E+02 0.645E+02 0.368E+02   -.587E+01 -.261E+00 0.130E+01   -.431E-05 -.739E-05 -.679E-05
   0.286E+02 0.211E+02 0.104E+03   -.301E+02 -.236E+02 -.109E+03   0.153E+01 0.241E+01 0.525E+01   -.400E-05 -.385E-06 -.261E-04
   -.453E+02 -.785E+02 -.699E+02   0.488E+02 0.822E+02 0.729E+02   -.357E+01 -.374E+01 -.304E+01   -.433E-05 0.183E-04 0.145E-04
   0.946E+02 -.331E+02 -.542E+02   -.981E+02 0.362E+02 0.580E+02   0.345E+01 -.312E+01 -.372E+01   -.831E-05 -.196E-07 0.649E-05
   0.105E+03 0.252E+02 -.236E+01   -.111E+03 -.263E+02 0.266E+01   0.591E+01 0.108E+01 -.303E+00   -.241E-04 -.140E-04 0.270E-05
   -.228E+02 -.760E+02 0.740E+02   0.194E+02 0.791E+02 -.778E+02   0.346E+01 -.319E+01 0.381E+01   0.266E-05 -.386E-05 -.851E-06
   0.433E+02 -.659E+02 -.804E+02   -.457E+02 0.693E+02 0.847E+02   0.248E+01 -.342E+01 -.430E+01   -.116E-04 0.192E-04 0.200E-04
   0.311E+02 -.139E+03 0.222E+03   -.263E+02 0.127E+03 -.208E+03   -.478E+01 0.119E+02 -.145E+02   0.195E-04 -.737E-04 0.913E-04
   0.232E+03 0.163E+03 0.623E+02   -.213E+03 -.160E+03 -.639E+02   -.194E+02 -.329E+01 0.160E+01   0.903E-04 0.625E-04 0.366E-05
   -.376E+02 0.233E+03 -.158E+03   0.274E+02 -.220E+03 0.143E+03   0.103E+02 -.131E+02 0.152E+02   -.237E-04 0.920E-04 -.925E-04
   0.394E+02 -.197E+03 -.197E+03   -.320E+02 0.187E+03 0.184E+03   -.745E+01 0.916E+01 0.124E+02   0.139E-04 -.692E-04 -.872E-04
   -.253E+03 -.968E+02 0.688E+02   0.231E+03 0.947E+02 -.712E+02   0.213E+02 0.202E+01 0.234E+01   -.680E-04 -.499E-04 -.425E-05
   -.122E+03 0.404E+03 0.423E+03   0.824E+02 -.386E+03 -.426E+03   0.398E+02 -.173E+02 0.270E+01   -.344E-04 0.119E-03 0.906E-04
   -.713E+02 0.128E+03 0.231E+03   0.696E+02 -.125E+03 -.228E+03   0.189E+01 -.346E+01 -.357E+01   0.238E-04 0.155E-04 -.212E-04
 -----------------------------------------------------------------------------------------------
   -.458E+02 0.229E+02 -.840E+01   0.114E-12 0.256E-12 -.853E-13   0.458E+02 -.229E+02 0.840E+01   -.962E-04 0.135E-03 -.169E-03
 
 
 POSITION                                       TOTAL-FORCE (eV/Angst)
 -----------------------------------------------------------------------------------
     12.61928      7.55238     13.08448        -0.217604     -0.022623     -0.031565
      8.75875     11.31222      6.55140         0.000900     -0.006166      0.003574
      9.11624     10.48468      7.61029         0.000950     -0.054855      0.009097
      9.47459     12.30603      8.99730         0.015181      0.011315      0.040784
      9.11904     13.19266      7.98704         0.006524      0.001828      0.007794
      8.75715     12.69444      6.73519         0.001111     -0.003810      0.006002
     10.46158      6.59100     13.49490        -0.030938      0.078318     -0.081297
      9.94203      7.43809     12.52376         0.081099     -0.148358      0.206415
     12.04547      8.38666     12.11872         0.374247     -0.348922      0.452624
      5.86694      9.53439     11.36602         0.005421      0.010150      0.010619
     14.79299     10.57118     10.69264         0.074001      0.012292      0.005031
     14.01643     11.32257      9.80881         0.044773     -0.039467      0.049001
     12.65158     11.07272      9.73048        -0.082437     -0.048865      0.030497
     12.79043      9.38554     11.34657         0.191953     -0.032568      0.080079
     14.16878      9.59490     11.46294        -0.049352     -0.053198      0.046209
     11.82695      6.64488     13.78060         0.473056      0.583398     -0.449422
      7.24231      9.77330     11.28348         0.002644     -0.003280     -0.018671
      8.15819     12.44233     13.81164         0.016341     -0.006641     -0.015135
      9.52399     12.52132     13.53212         0.007841      0.010394      0.014786
     10.05904     11.71816     12.53361        -0.004205     -0.020391     -0.024106
      7.96508     10.76003     12.08522         0.017061     -0.003514     -0.020787
      7.38092     11.55121     13.07965        -0.008800     -0.001888     -0.002121
      7.45796      8.11597      9.64469         0.046485     -0.001528     -0.004811
      6.09730      7.83470      9.68863        -0.021145     -0.003211      0.006461
      5.28440      8.55710     10.56432         0.017042     -0.009221     -0.013160
      9.79795      5.90212     14.01497         0.074428     -0.017562      0.032557
     12.26685      5.99367     14.53463         0.150363      0.079607     -0.043579
     13.68484      7.61538     13.29576        -1.166566     -0.079361     -0.212766
     10.84507      7.24677      9.22597        -0.015030     -0.014767     -0.074817
      6.31582     11.46138     13.28407        -0.000877      0.007188     -0.001787
      8.88327      7.42377     12.27295        -0.010564     -0.003622     -0.004294
      8.47853     13.36665      5.92453        -0.003641      0.005086     -0.000976
      9.12855     14.26265      8.19005         0.003818     -0.000743      0.003035
      9.76183     12.67176      9.98145        -0.003377      0.015560     -0.003175
     11.38256      8.36174      8.29610        -0.008488     -0.009983     -0.053066
     14.75349      8.99278     12.15530         0.083948      0.014818      0.002928
     14.45552     12.09620      9.18096         0.013302      0.003556     -0.004809
      9.11405      9.40258      7.49376        -0.013689     -0.000938     -0.015045
      8.12287      7.57771      8.97051        -0.005774     -0.005584     -0.014324
      5.68876      7.06123      9.04041         0.000323     -0.004975     -0.003575
     15.86530     10.74076     10.77851        -0.000333     -0.001807      0.004239
     11.11794     11.75383     12.28812         0.005282      0.020439      0.002216
      8.48240     10.86572      5.59722        -0.004473     -0.003010      0.006047
     10.17895     13.19691     14.08003         0.000640      0.005929     -0.001194
      5.25320     10.11370     12.05309        -0.003109     -0.000675     -0.003200
      4.21445      8.36275     10.62101        -0.004961     -0.000465     -0.002939
     12.01813     11.63958      9.05085        -0.009562     -0.009485      0.005244
      7.70887     13.05934     14.58823        -0.002823      0.008164      0.005671
      9.48490     10.95884      8.82805        -0.020036      0.016103      0.014212
      8.03610      9.06122     10.42169        -0.096883     -0.027869      0.012373
     10.70414      8.32170     11.83465         0.124757      0.124957     -0.071681
      9.30896     10.85100     11.80824        -0.088715      0.110199      0.121145
     12.02768     10.13012     10.47953        -0.152444     -0.047708      0.004598
     10.61480      8.11252      8.84309         0.014969      0.032584      0.058422
     10.01771      9.61740     10.38685         0.177368     -0.114824     -0.069359
 -----------------------------------------------------------------------------------
    total drift:                                0.007158     -0.003213      0.003128


--------------------------------------------------------------------------------------------------------



  FREE ENERGIE OF THE ION-ELECTRON SYSTEM (eV)
  ---------------------------------------------------
  free  energy   TOTEN  =      -377.37278116 eV

  energy  without entropy=     -377.37278116  energy(sigma->0) =     -377.37278116
 


--------------------------------------------------------------------------------------------------------


    POTLOK:  cpu time    7.40: real time    7.42


--------------------------------------------------------------------------------------------------------


 writing wavefunctions
     LOOP+:  cpu time 1006.81: real time 1045.05
    4ORBIT:  cpu time    0.00: real time    0.00

 total amount of memory used by VASP on root node   877132. kBytes
========================================================================

   base      :      30000. kBytes
   nonlr-proj:      19361. kBytes
   fftplans  :     269516. kBytes
   grid      :     534988. kBytes
   one-center:       1710. kBytes
   wavefun   :      21557. kBytes
 
  
  
 General timing and accounting informations for this job:
 ========================================================
  
                  Total CPU time used (sec):     1264.328
                            User time (sec):     1114.437
                          System time (sec):      149.891
                         Elapsed time (sec):     1306.612
  
                   Maximum memory used (kb):     1490160.
                   Average memory used (kb):           0.
  
                          Minor page faults:      6847000
                          Major page faults:            0
                 Voluntary context switches:       274768
