<?xml version="1.0" encoding="ISO-8859-1"?>
<modeling>
 <generator>
  <i name="program" type="string">vasp </i>
  <i name="version" type="string">5.3.5  </i>
  <i name="subversion" type="string">31Mar14 (build Apr 08 2014 12:00:03) complex                          parallel </i>
  <i name="platform" type="string">NSC-NSCPATCH-BUILD02 </i>
  <i name="date" type="string">2017 03 15 </i>
  <i name="time" type="string">18:39:13 </i>
 </generator>
 <incar>
  <i type="string" name="SYSTEM"> c2_oh2_ruthenium_mol</i>
  <i type="int" name="ISTART">     0</i>
  <i type="string" name="PREC">accurate</i>
  <i type="int" name="IALGO">    38</i>
  <i type="logical" name="ADDGRID"> T  </i>
  <i type="int" name="ISPIN">     2</i>
  <i name="BMIX">      2.00000000</i>
  <i type="int" name="ICHARG">     2</i>
  <i name="EDIFF">      0.00001000</i>
  <i name="EDIFFG">     -0.01000000</i>
  <i name="ENCUT">    700.00000000</i>
  <i name="POTIM">      0.50000000</i>
  <i name="NUPDOWN">      0.00000000</i>
  <i name="NELECT">    166.00000000</i>
  <i type="string" name="LREAL"> Auto</i>
  <i name="TIME">      0.05000000</i>
  <i type="int" name="ISMEAR">     0</i>
  <i name="SIGMA">      0.01000000</i>
  <i type="int" name="ICORELEVEL">     2</i>
  <i type="int" name="CLNT">     1</i>
  <i type="int" name="CLN">     1</i>
  <i type="int" name="INCAR     ">     0</i>
  <i name="CLZ">      0.50000000</i>
 </incar>
 <kpoints>
  <generation param="Monkhorst-Pack">
   <v type="int" name="divisions">       1        1        1 </v>
   <v name="usershift">      0.00000000       0.00000000       0.00000000 </v>
   <v name="genvec1">      1.00000000       0.00000000       0.00000000 </v>
   <v name="genvec2">      0.00000000       1.00000000       0.00000000 </v>
   <v name="genvec3">      0.00000000       0.00000000       1.00000000 </v>
   <v name="shift">      0.00000000       0.00000000       0.00000000 </v>
  </generation>
  <varray name="kpointlist" >
   <v>       0.00000000       0.00000000       0.00000000 </v>
  </varray>
  <varray name="weights" >
   <v>       1.00000000 </v>
  </varray>
 </kpoints>
 <parameters>
  <separator name="general" >
   <i type="string" name="SYSTEM">c2_oh2_ruthenium_mol</i>
   <i type="logical" name="LCOMPAT"> F  </i>
  </separator>
  <separator name="electronic" >
   <i type="string" name="PREC">accura</i>
   <i name="ENMAX">    700.00000000</i>
   <i name="ENAUG">    946.76800000</i>
   <i name="EDIFF">      0.00001000</i>
   <i type="int" name="IALGO">    38</i>
   <i type="int" name="IWAVPR">    10</i>
   <i type="int" name="NBANDS">   128</i>
   <i name="NELECT">    166.00000000</i>
   <i type="int" name="TURBO">     0</i>
   <i type="int" name="IRESTART">     0</i>
   <i type="int" name="NREBOOT">     0</i>
   <i type="int" name="NMIN">     0</i>
   <i name="EREF">      0.00000000</i>
   <separator name="electronic smearing" >
    <i type="int" name="ISMEAR">     0</i>
    <i name="SIGMA">      0.01000000</i>
    <i name="KSPACING">      0.50000000</i>
    <i type="logical" name="KGAMMA"> T  </i>
   </separator>
   <separator name="electronic projectors" >
    <i type="logical" name="LREAL"> T  </i>
    <v name="ROPT">     -0.00025000     -0.00025000     -0.00025000     -0.00025000     -0.00025000     -0.00025000</v>
    <i type="int" name="LMAXPAW">  -100</i>
    <i type="int" name="LMAXMIX">     2</i>
    <i type="logical" name="NLSPLINE"> F  </i>
   </separator>
   <separator name="electronic startup" >
    <i type="int" name="ISTART">     0</i>
    <i type="int" name="ICHARG">     2</i>
    <i type="int" name="INIWAV">     1</i>
   </separator>
   <separator name="electronic spin" >
    <i type="int" name="ISPIN">     2</i>
    <i type="logical" name="LNONCOLLINEAR"> F  </i>
    <v name="MAGMOM">      0.00000000      0.00000000      0.00000000      0.00000000      0.00000000      0.00000000      0.00000000      0.00000000      0.00000000      0.00000000      0.00000000      0.00000000      0.00000000      0.00000000      0.00000000      0.00000000      0.00000000      0.00000000      0.00000000      0.00000000
      0.00000000      0.00000000      0.00000000      0.00000000      0.00000000      0.00000000      0.00000000      0.00000000      0.00000000      0.00000000      0.00000000      0.00000000      0.00000000      0.00000000      0.00000000      0.00000000      0.00000000      0.00000000      0.00000000      0.00000000
      0.00000000      0.00000000      0.00000000      0.00000000      0.00000000      0.00000000      0.00000000      0.00000000      0.00000000      0.00000000      0.00000000      0.00000000      0.00000000      0.00000000      0.00000000</v>
    <i name="NUPDOWN">      0.00000000</i>
    <i type="logical" name="LSORBIT"> F  </i>
    <v name="SAXIS">      0.00000000      0.00000000      1.00000000</v>
    <i type="logical" name="LSPIRAL"> F  </i>
    <v name="QSPIRAL">      0.00000000      0.00000000      0.00000000</v>
    <i type="logical" name="LZEROZ"> F  </i>
   </separator>
   <separator name="electronic exchange-correlation" >
    <i type="logical" name="LASPH"> F  </i>
    <i type="logical" name="LMETAGGA"> F  </i>
   </separator>
   <separator name="electronic convergence" >
    <i type="int" name="NELM">    60</i>
    <i type="int" name="NELMDL">    -5</i>
    <i type="int" name="NELMIN">     2</i>
    <i name="ENINI">    700.00000000</i>
    <separator name="electronic convergence detail" >
     <i type="logical" name="LDIAG"> T  </i>
     <i type="logical" name="LSUBROT"> F  </i>
     <i name="WEIMIN">      0.00000000</i>
     <i name="EBREAK">      0.00000002</i>
     <i name="DEPER">      0.30000000</i>
     <i type="int" name="NRMM">     4</i>
     <i name="TIME">      0.05000000</i>
    </separator>
   </separator>
   <separator name="electronic mixer" >
    <i name="AMIX">      0.40000000</i>
    <i name="BMIX">      2.00000000</i>
    <i name="AMIN">      0.10000000</i>
    <i name="AMIX_MAG">      1.60000000</i>
    <i name="BMIX_MAG">      2.00000000</i>
    <separator name="electronic mixer details" >
     <i type="int" name="IMIX">     4</i>
     <i type="int" name="MAXMIX">   -45</i>
     <i name="WC">    100.00000000</i>
     <i type="int" name="INIMIX">     1</i>
     <i type="int" name="MIXPRE">     1</i>
     <i type="int" name="MREMOVE">     5</i>
    </separator>
   </separator>
   <separator name="electronic dipolcorrection" >
    <i type="logical" name="LDIPOL"> F  </i>
    <i type="logical" name="LMONO"> F  </i>
    <i type="int" name="IDIPOL">     0</i>
    <i name="EPSILON">      1.00000000</i>
    <v name="DIPOL">   -100.00000000   -100.00000000   -100.00000000</v>
    <i name="EFIELD">      0.00000000</i>
   </separator>
  </separator>
  <separator name="grids" >
   <i type="int" name="NGX">   180</i>
   <i type="int" name="NGY">   180</i>
   <i type="int" name="NGZ">   180</i>
   <i type="int" name="NGXF">   360</i>
   <i type="int" name="NGYF">   360</i>
   <i type="int" name="NGZF">   360</i>
   <i type="logical" name="ADDGRID"> T  </i>
  </separator>
  <separator name="ionic" >
   <i type="int" name="NSW">     0</i>
   <i type="int" name="IBRION">    -1</i>
   <i type="int" name="ISIF">     2</i>
   <i name="PSTRESS">      0.00000000</i>
   <i name="EDIFFG">     -0.01000000</i>
   <i type="int" name="NFREE">     0</i>
   <i name="POTIM">      0.50000000</i>
   <i name="SMASS">     -3.00000000</i>
   <i name="SCALEE">      1.00000000</i>
  </separator>
  <separator name="ionic md" >
   <i name="TEBEG">      0.00010000</i>
   <i name="TEEND">      0.00010000</i>
   <i type="int" name="NBLOCK">     1</i>
   <i type="int" name="KBLOCK">     1</i>
   <i type="int" name="NPACO">   256</i>
   <i name="APACO">     16.00000000</i>
  </separator>
  <separator name="symmetry" >
   <i type="int" name="ISYM">     2</i>
   <i name="SYMPREC">      0.00001000</i>
  </separator>
  <separator name="dos" >
   <i type="logical" name="LORBIT"> F  </i>
   <v name="RWIGS">     -1.00000000     -1.00000000     -1.00000000     -1.00000000     -1.00000000     -1.00000000</v>
   <i type="int" name="NEDOS">   301</i>
   <i name="EMIN">     10.00000000</i>
   <i name="EMAX">    -10.00000000</i>
   <i name="EFERMI">      0.00000000</i>
  </separator>
  <separator name="writing" >
   <i type="int" name="NWRITE">     2</i>
   <i type="logical" name="LWAVE"> T  </i>
   <i type="logical" name="LCHARG"> T  </i>
   <i type="logical" name="LPARD"> F  </i>
   <i type="logical" name="LVTOT"> F  </i>
   <i type="logical" name="LVHAR"> F  </i>
   <i type="logical" name="LELF"> F  </i>
   <i type="logical" name="LOPTICS"> F  </i>
   <v name="STM">      0.00000000      0.00000000      0.00000000      0.00000000      0.00000000      0.00000000      0.00000000</v>
  </separator>
  <separator name="performance" >
   <i type="int" name="NPAR">    64</i>
   <i type="int" name="NSIM">     4</i>
   <i type="int" name="NBLK">    -1</i>
   <i type="logical" name="LPLANE"> T  </i>
   <i type="logical" name="LSCALAPACK"> T  </i>
   <i type="logical" name="LSCAAWARE"> F  </i>
   <i type="logical" name="LSCALU"> F  </i>
   <i type="logical" name="LASYNC"> F  </i>
   <i type="logical" name="LORBITALREAL"> F  </i>
  </separator>
  <separator name="miscellaneous" >
   <i type="int" name="IDIOT">     3</i>
   <i type="logical" name="LMUSIC"> F  </i>
   <v name="POMASS">     12.01100000     12.01100000      1.00000000     14.00100000     16.00000000    101.07000000</v>
   <v name="DARWINR">      0.00000000      0.00000000      0.00000000      0.00000000      0.00000000      0.00000000</v>
   <v name="DARWINV">      1.00000000      1.00000000      1.00000000      1.00000000      1.00000000      1.00000000</v>
   <i type="logical" name="LCORR"> T  </i>
  </separator>
  <i type="logical" name="GGA_COMPAT"> T  </i>
  <i type="logical" name="LBERRY"> F  </i>
  <i type="int" name="ICORELEVEL">     2</i>
  <i type="int" name="CLNT">     1</i>
  <i type="int" name="CLN">     1</i>
  <i type="int" name="CLL">     0</i>
  <i name="CLZ">      0.50000000</i>
  <i type="logical" name="LDAU"> F  </i>
  <i type="int" name="I_CONSTRAINED_M">     0</i>
  <separator name="electronic exchange-correlation" >
   <i type="string" name="GGA">--</i>
   <i type="int" name="VOSKOWN">     0</i>
   <i type="logical" name="LHFCALC"> F  </i>
   <i type="string" name="PRECFOCK"></i>
   <i type="logical" name="LSYMGRAD"> F  </i>
   <i type="logical" name="LHFONE"> F  </i>
   <i type="logical" name="LRHFCALC"> F  </i>
   <i type="logical" name="LTHOMAS"> F  </i>
   <i type="logical" name="LMODELHF"> F  </i>
   <i name="ENCUT4O">     -1.00000000</i>
   <i type="int" name="EXXOEP">     0</i>
   <i type="int" name="FOURORBIT">     0</i>
   <i name="AEXX">      0.00000000</i>
   <i name="HFALPHA">      0.00000000</i>
   <i name="MCALPHA">      0.00000000</i>
   <i name="ALDAX">      1.00000000</i>
   <i name="AGGAX">      1.00000000</i>
   <i name="ALDAC">      1.00000000</i>
   <i name="AGGAC">      1.00000000</i>
   <i type="int" name="NKREDX">     1</i>
   <i type="int" name="NKREDY">     1</i>
   <i type="int" name="NKREDZ">     1</i>
   <i type="logical" name="SHIFTRED"> F  </i>
   <i type="logical" name="ODDONLY"> F  </i>
   <i type="logical" name="EVENONLY"> F  </i>
   <i type="int" name="LMAXFOCK">     0</i>
   <i type="int" name="NMAXFOCKAE">     0</i>
   <i type="logical" name="LFOCKAEDFT"> F  </i>
   <i name="HFSCREEN">      0.00000000</i>
   <i name="HFSCREENC">      0.00000000</i>
   <i type="int" name="NBANDSGWLOW">     0</i>
  </separator>
  <separator name="vdW DFT" >
   <i type="logical" name="LUSE_VDW"> F  </i>
   <i name="Zab_VDW">     -0.84910000</i>
   <i name="PARAM1">      0.12340000</i>
   <i name="PARAM2">      1.00000000</i>
   <i name="PARAM3">      0.00000000</i>
  </separator>
  <separator name="model GW" >
   <i type="int" name="MODEL_GW">     0</i>
   <i name="MODEL_EPS0">     87.27272727</i>
   <i name="MODEL_ALPHA">      1.00000000</i>
  </separator>
  <separator name="linear response parameters" >
   <i type="logical" name="LEPSILON"> F  </i>
   <i type="logical" name="LRPA"> F  </i>
   <i type="logical" name="LNABLA"> F  </i>
   <i type="logical" name="LVEL"> F  </i>
   <i type="int" name="KINTER">     0</i>
   <i name="CSHIFT">      0.10000000</i>
   <i name="OMEGAMAX">     -1.00000000</i>
   <i name="DEG_THRESHOLD">      0.00200000</i>
  </separator>
  <separator name="orbital magnetization" >
   <i type="logical" name="NUCIND"> F  </i>
   <v name="MAGPOS">      0.00000000      0.00000000      0.00000000</v>
   <i type="logical" name="LNICSALL"> T  </i>
   <i type="logical" name="ORBITALMAG"> F  </i>
   <i type="logical" name="LMAGBLOCH"> F  </i>
   <i type="logical" name="LCHIMAG"> F  </i>
   <i type="logical" name="LGAUGE"> T  </i>
   <i type="int" name="MAGATOM">     0</i>
   <v name="MAGDIPOL">      0.00000000      0.00000000      0.00000000</v>
   <v name="AVECCONST">      0.00000000      0.00000000      0.00000000</v>
  </separator>
  <separator name="response functions" >
   <i type="logical" name="LADDER"> F  </i>
   <i type="logical" name="LFXC"> F  </i>
   <i type="logical" name="LHARTREE"> T  </i>
   <i type="int" name="IBSE">     0</i>
   <i type="logical" name="LTCTE"> F  </i>
   <i type="logical" name="LTETE"> F  </i>
   <i type="logical" name="LTRIPLET"> F  </i>
   <i type="logical" name="LFXCEPS"> F  </i>
   <i type="logical" name="LFXHEG"> F  </i>
   <i type="logical" name="L2ORDER"> F  </i>
   <i type="logical" name="LUSEW"> F  </i>
   <i name="ENCUTGW">     -2.00000000</i>
   <i name="ENCUTGWSOFT">     -2.00000000</i>
   <i name="ENCUTLF">     -1.00000000</i>
   <i type="int" name="LMAXMP2">    -1</i>
   <i name="SCISSOR">      0.00000000</i>
   <i type="int" name="NOMEGA">     0</i>
   <i type="int" name="NOMEGAR">     0</i>
   <i type="int" name="NBANDSGW">    -1</i>
   <i type="int" name="NBANDSO">    -1</i>
   <i type="int" name="NBANDSV">    -1</i>
   <i type="int" name="NELM">     1</i>
   <i type="int" name="DIM">     3</i>
   <i type="int" name="ANTIRES">     0</i>
   <i name="OMEGAMAX">    -30.00000000</i>
   <i name="OMEGAMIN">    -30.00000000</i>
   <i name="OMEGATL">   -200.00000000</i>
   <i type="int" name="OMEGAGRID">     0</i>
   <i name="CSHIFT">     -0.10000000</i>
   <i type="logical" name="SELFENERGY"> F  </i>
   <i type="logical" name="LSPECTRAL"> F  </i>
   <i type="logical" name="ODDONLYGW"> F  </i>
   <i type="logical" name="EVENONLYGW"> F  </i>
   <i type="int" name="NKREDLFX">     1</i>
   <i type="int" name="NKREDLFY">     1</i>
   <i type="int" name="NKREDLFZ">     1</i>
   <i type="int" name="MAXMEM">  1800</i>
   <i type="int" name="TELESCOPE">     0</i>
   <i type="int" name="TAUPAR">     1</i>
  </separator>
  <separator name="External order field" >
   <i name="OFIELD_KAPPA">      0.00000000</i>
   <v name="OFIELD_K">      0.00000000      0.00000000      0.00000000</v>
   <i name="OFIELD_Q6_NEAR">      0.00000000</i>
   <i name="OFIELD_Q6_FAR">      0.00000000</i>
   <i name="OFIELD_A">      0.00000000</i>
  </separator>
 </parameters>
 <atominfo>
  <atoms>      55 </atoms>
  <types>       6 </types>
  <array name="atoms" >
   <dimension dim="1">ion</dimension>
   <field type="string">element</field>
   <field type="int">atomtype</field>
   <set>
    <rc><c>C </c><c>   1</c></rc>
    <rc><c>C </c><c>   2</c></rc>
    <rc><c>C </c><c>   2</c></rc>
    <rc><c>C </c><c>   2</c></rc>
    <rc><c>C </c><c>   2</c></rc>
    <rc><c>C </c><c>   2</c></rc>
    <rc><c>C </c><c>   2</c></rc>
    <rc><c>C </c><c>   2</c></rc>
    <rc><c>C </c><c>   2</c></rc>
    <rc><c>C </c><c>   2</c></rc>
    <rc><c>C </c><c>   2</c></rc>
    <rc><c>C </c><c>   2</c></rc>
    <rc><c>C </c><c>   2</c></rc>
    <rc><c>C </c><c>   2</c></rc>
    <rc><c>C </c><c>   2</c></rc>
    <rc><c>C </c><c>   2</c></rc>
    <rc><c>C </c><c>   2</c></rc>
    <rc><c>C </c><c>   2</c></rc>
    <rc><c>C </c><c>   2</c></rc>
    <rc><c>C </c><c>   2</c></rc>
    <rc><c>C </c><c>   2</c></rc>
    <rc><c>C </c><c>   2</c></rc>
    <rc><c>C </c><c>   2</c></rc>
    <rc><c>C </c><c>   2</c></rc>
    <rc><c>C </c><c>   2</c></rc>
    <rc><c>H </c><c>   3</c></rc>
    <rc><c>H </c><c>   3</c></rc>
    <rc><c>H </c><c>   3</c></rc>
    <rc><c>H </c><c>   3</c></rc>
    <rc><c>H </c><c>   3</c></rc>
    <rc><c>H </c><c>   3</c></rc>
    <rc><c>H </c><c>   3</c></rc>
    <rc><c>H </c><c>   3</c></rc>
    <rc><c>H </c><c>   3</c></rc>
    <rc><c>H </c><c>   3</c></rc>
    <rc><c>H </c><c>   3</c></rc>
    <rc><c>H </c><c>   3</c></rc>
    <rc><c>H </c><c>   3</c></rc>
    <rc><c>H </c><c>   3</c></rc>
    <rc><c>H </c><c>   3</c></rc>
    <rc><c>H </c><c>   3</c></rc>
    <rc><c>H </c><c>   3</c></rc>
    <rc><c>H </c><c>   3</c></rc>
    <rc><c>H </c><c>   3</c></rc>
    <rc><c>H </c><c>   3</c></rc>
    <rc><c>H </c><c>   3</c></rc>
    <rc><c>H </c><c>   3</c></rc>
    <rc><c>H </c><c>   3</c></rc>
    <rc><c>N </c><c>   4</c></rc>
    <rc><c>N </c><c>   4</c></rc>
    <rc><c>N </c><c>   4</c></rc>
    <rc><c>N </c><c>   4</c></rc>
    <rc><c>N </c><c>   4</c></rc>
    <rc><c>O </c><c>   5</c></rc>
    <rc><c>Ru</c><c>   6</c></rc>
   </set>
  </array>
  <array name="atomtypes" >
   <dimension dim="1">type</dimension>
   <field type="int">atomspertype</field>
   <field type="string">element</field>
   <field>mass</field>
   <field>valence</field>
   <field type="string">pseudopotential</field>
   <set>
    <rc><c>   1</c><c>C </c><c>     12.01100000</c><c>      4.50000000</c><c>  PAW_PBE C_h 06Feb2004                 </c></rc>
    <rc><c>  24</c><c>C </c><c>     12.01100000</c><c>      4.00000000</c><c>  PAW_PBE C_h 06Feb2004                 </c></rc>
    <rc><c>  23</c><c>H </c><c>      1.00000000</c><c>      1.00000000</c><c>  PAW_PBE H 15Jun2001                   </c></rc>
    <rc><c>   5</c><c>N </c><c>     14.00100000</c><c>      5.00000000</c><c>  PAW_PBE N_h 06Feb2004                 </c></rc>
    <rc><c>   1</c><c>O </c><c>     16.00000000</c><c>      6.00000000</c><c>  PAW_PBE O_h 06Feb2004                 </c></rc>
    <rc><c>   1</c><c>Ru</c><c>    101.07000000</c><c>     14.00000000</c><c>  PAW_PBE Ru_pv 28Jan2005               </c></rc>
   </set>
  </array>
 </atominfo>
 <structure name="initialpos" >
  <crystal>
   <varray name="basis" >
    <v>      20.00000000       0.00000000       0.00000000 </v>
    <v>       0.00000000      20.00000000       0.00000000 </v>
    <v>       0.00000000       0.00000000      20.00000000 </v>
   </varray>
   <i name="volume">   8000.00000000 </i>
   <varray name="rec_basis" >
    <v>       0.05000000       0.00000000       0.00000000 </v>
    <v>       0.00000000       0.05000000       0.00000000 </v>
    <v>       0.00000000       0.00000000       0.05000000 </v>
   </varray>
  </crystal>
  <varray name="positions" >
   <v>       0.63096398       0.37761922       0.65422416 </v>
   <v>       0.43793752       0.56561110       0.32757008 </v>
   <v>       0.45581208       0.52423376       0.38051465 </v>
   <v>       0.47372925       0.61530131       0.44986522 </v>
   <v>       0.45595175       0.65963312       0.39935201 </v>
   <v>       0.43785737       0.63472201       0.33675972 </v>
   <v>       0.52307882       0.32955005       0.67474498 </v>
   <v>       0.49710163       0.37190466       0.62618823 </v>
   <v>       0.60227374       0.41933300       0.60593616 </v>
   <v>       0.29334713       0.47671938       0.56830116 </v>
   <v>       0.73964927       0.52855915       0.53463181 </v>
   <v>       0.70082162       0.56612858       0.49044049 </v>
   <v>       0.63257913       0.55363620       0.48652424 </v>
   <v>       0.63952130       0.46927713       0.56732841 </v>
   <v>       0.70843899       0.47974495       0.57314689 </v>
   <v>       0.59134754       0.33224398       0.68903016 </v>
   <v>       0.36211554       0.48866484       0.56417415 </v>
   <v>       0.40790931       0.62211625       0.69058213 </v>
   <v>       0.47619960       0.62606623       0.67660612 </v>
   <v>       0.50295190       0.58590820       0.62668073 </v>
   <v>       0.39825425       0.53800137       0.60426081 </v>
   <v>       0.36904589       0.57756069       0.65398228 </v>
   <v>       0.37289802       0.40579857       0.48223443 </v>
   <v>       0.30486503       0.39173492       0.48443166 </v>
   <v>       0.26422003       0.42785518       0.52821594 </v>
   <v>       0.48989745       0.29510618       0.70074864 </v>
   <v>       0.61334240       0.29968355       0.72673159 </v>
   <v>       0.68424189       0.38076917       0.66478776 </v>
   <v>       0.54225374       0.36233861       0.46129841 </v>
   <v>       0.31579090       0.57306911       0.66420366 </v>
   <v>       0.44416348       0.37118871       0.61364770 </v>
   <v>       0.42392665       0.66833230       0.29622671 </v>
   <v>       0.45642762       0.71313270       0.40950260 </v>
   <v>       0.48809132       0.63358802       0.49907234 </v>
   <v>       0.56912778       0.41808713       0.41480476 </v>
   <v>       0.73767440       0.44963919       0.60776512 </v>
   <v>       0.72277620       0.60481012       0.45904817 </v>
   <v>       0.45570253       0.47012894       0.37468790 </v>
   <v>       0.40614333       0.37888556       0.44852541 </v>
   <v>       0.28443799       0.35306162       0.45202062 </v>
   <v>       0.79326502       0.53703787       0.53892527 </v>
   <v>       0.55589708       0.58769132       0.61440612 </v>
   <v>       0.42412006       0.54328620       0.27986105 </v>
   <v>       0.50894741       0.65984570       0.70400156 </v>
   <v>       0.26265982       0.50568523       0.60265428 </v>
   <v>       0.21072272       0.41813760       0.53105039 </v>
   <v>       0.60090654       0.58197914       0.45254259 </v>
   <v>       0.38544357       0.65296704       0.72941133 </v>
   <v>       0.47424490       0.54794204       0.44140236 </v>
   <v>       0.40180479       0.45306079       0.52108436 </v>
   <v>       0.53520702       0.41608490       0.59173240 </v>
   <v>       0.46544808       0.54254992       0.59041194 </v>
   <v>       0.60138410       0.50650621       0.52397638 </v>
   <v>       0.53073984       0.40562607       0.44215451 </v>
   <v>       0.50088568       0.48087016       0.51934246 </v>
  </varray>
  <varray name="selective"  type="logical" >
   <v type="logical" >  T  T  T </v>
   <v type="logical" >  T  T  T </v>
   <v type="logical" >  T  T  T </v>
   <v type="logical" >  T  T  T </v>
   <v type="logical" >  T  T  T </v>
   <v type="logical" >  T  T  T </v>
   <v type="logical" >  T  T  T </v>
   <v type="logical" >  T  T  T </v>
   <v type="logical" >  T  T  T </v>
   <v type="logical" >  T  T  T </v>
   <v type="logical" >  T  T  T </v>
   <v type="logical" >  T  T  T </v>
   <v type="logical" >  T  T  T </v>
   <v type="logical" >  T  T  T </v>
   <v type="logical" >  T  T  T </v>
   <v type="logical" >  T  T  T </v>
   <v type="logical" >  T  T  T </v>
   <v type="logical" >  T  T  T </v>
   <v type="logical" >  T  T  T </v>
   <v type="logical" >  T  T  T </v>
   <v type="logical" >  T  T  T </v>
   <v type="logical" >  T  T  T </v>
   <v type="logical" >  T  T  T </v>
   <v type="logical" >  T  T  T </v>
   <v type="logical" >  T  T  T </v>
   <v type="logical" >  T  T  T </v>
   <v type="logical" >  T  T  T </v>
   <v type="logical" >  T  T  T </v>
   <v type="logical" >  T  T  T </v>
   <v type="logical" >  T  T  T </v>
   <v type="logical" >  T  T  T </v>
   <v type="logical" >  T  T  T </v>
   <v type="logical" >  T  T  T </v>
   <v type="logical" >  T  T  T </v>
   <v type="logical" >  T  T  T </v>
   <v type="logical" >  T  T  T </v>
   <v type="logical" >  T  T  T </v>
   <v type="logical" >  T  T  T </v>
   <v type="logical" >  T  T  T </v>
   <v type="logical" >  T  T  T </v>
   <v type="logical" >  T  T  T </v>
   <v type="logical" >  T  T  T </v>
   <v type="logical" >  T  T  T </v>
   <v type="logical" >  T  T  T </v>
   <v type="logical" >  T  T  T </v>
   <v type="logical" >  T  T  T </v>
   <v type="logical" >  T  T  T </v>
   <v type="logical" >  T  T  T </v>
   <v type="logical" >  T  T  T </v>
   <v type="logical" >  T  T  T </v>
   <v type="logical" >  T  T  T </v>
   <v type="logical" >  T  T  T </v>
   <v type="logical" >  T  T  T </v>
   <v type="logical" >  T  T  T </v>
   <v type="logical" >  T  T  T </v>
  </varray>
  <nose>
   <v>      -3.00000000       0.00000000       0.00010000       0.00010000 </v>
  </nose>
 </structure>
 <calculation>
  <scstep>
   <time name="dav">   14.75   15.70</time>
   <time name="total">   22.21   23.20</time>
   <energy>
    <i name="alphaZ">     12.91687988 </i>
    <i name="ewald">  23283.59746562 </i>
    <i name="hartreedc"> -28885.87890868 </i>
    <i name="XCdc">    400.93948400 </i>
    <i name="pawpsdc">   5890.45591622 </i>
    <i name="pawaedc">  -5710.10246236 </i>
    <i name="eentropy">     -0.00022080 </i>
    <i name="bandstr">  -1675.90789930 </i>
    <i name="atom">   7593.39991119 </i>
    <i name="e_fr_energy">    909.42016578 </i>
    <i name="e_wo_entrp">    909.42038658 </i>
    <i name="e_0_energy">    909.42027618 </i>
   </energy>
  </scstep>
  <scstep>
   <time name="dav">   19.16   20.27</time>
   <time name="total">   19.17   20.28</time>
   <energy>
    <i name="e_fr_energy">    -69.47171706 </i>
    <i name="e_wo_entrp">    -69.47171706 </i>
    <i name="e_0_energy">    -69.47171706 </i>
   </energy>
  </scstep>
  <scstep>
   <time name="dav">   16.03   16.97</time>
   <time name="total">   16.04   16.97</time>
   <energy>
    <i name="e_fr_energy">   -393.23705117 </i>
    <i name="e_wo_entrp">   -393.23705117 </i>
    <i name="e_0_energy">   -393.23705117 </i>
   </energy>
  </scstep>
  <scstep>
   <time name="dav">   13.75   14.58</time>
   <time name="total">   13.76   14.59</time>
   <energy>
    <i name="e_fr_energy">   -412.23327243 </i>
    <i name="e_wo_entrp">   -412.23327243 </i>
    <i name="e_0_energy">   -412.23327243 </i>
   </energy>
  </scstep>
  <scstep>
   <time name="dav">   16.97   17.98</time>
   <time name="total">   22.26   23.30</time>
   <energy>
    <i name="e_fr_energy">   -412.45878390 </i>
    <i name="e_wo_entrp">   -412.45878390 </i>
    <i name="e_0_energy">   -412.45878390 </i>
   </energy>
  </scstep>
  <scstep>
   <time name="dav">   11.76   12.51</time>
   <time name="total">   24.51   25.29</time>
   <energy>
    <i name="e_fr_energy">   -394.21331115 </i>
    <i name="e_wo_entrp">   -394.21331115 </i>
    <i name="e_0_energy">   -394.21331115 </i>
   </energy>
  </scstep>
  <scstep>
   <time name="dav">   13.96   15.14</time>
   <time name="total">   26.62   27.84</time>
   <energy>
    <i name="e_fr_energy">   -383.26278902 </i>
    <i name="e_wo_entrp">   -383.26278902 </i>
    <i name="e_0_energy">   -383.26278902 </i>
   </energy>
  </scstep>
  <scstep>
   <time name="dav">   15.17   16.41</time>
   <time name="total">   27.79   29.12</time>
   <energy>
    <i name="e_fr_energy">   -378.84923715 </i>
    <i name="e_wo_entrp">   -378.84923715 </i>
    <i name="e_0_energy">   -378.84923715 </i>
   </energy>
  </scstep>
  <scstep>
   <time name="dav">   15.03   16.28</time>
   <time name="total">   27.71   28.99</time>
   <energy>
    <i name="e_fr_energy">   -377.63625097 </i>
    <i name="e_wo_entrp">   -377.63625097 </i>
    <i name="e_0_energy">   -377.63625097 </i>
   </energy>
  </scstep>
  <scstep>
   <time name="dav">   15.39   16.62</time>
   <time name="total">   27.92   29.19</time>
   <energy>
    <i name="e_fr_energy">   -377.58175868 </i>
    <i name="e_wo_entrp">   -377.58175868 </i>
    <i name="e_0_energy">   -377.58175868 </i>
   </energy>
  </scstep>
  <scstep>
   <time name="dav">   15.03   16.28</time>
   <time name="total">   27.72   28.99</time>
   <energy>
    <i name="e_fr_energy">   -377.46253627 </i>
    <i name="e_wo_entrp">   -377.46253627 </i>
    <i name="e_0_energy">   -377.46253627 </i>
   </energy>
  </scstep>
  <scstep>
   <time name="dav">   15.42   16.65</time>
   <time name="total">   27.91   29.17</time>
   <energy>
    <i name="e_fr_energy">   -377.38333784 </i>
    <i name="e_wo_entrp">   -377.38333784 </i>
    <i name="e_0_energy">   -377.38333784 </i>
   </energy>
  </scstep>
  <scstep>
   <time name="dav">   15.02   16.26</time>
   <time name="total">   27.62   28.89</time>
   <energy>
    <i name="e_fr_energy">   -377.35867407 </i>
    <i name="e_wo_entrp">   -377.35867407 </i>
    <i name="e_0_energy">   -377.35867407 </i>
   </energy>
  </scstep>
  <scstep>
   <time name="dav">   15.21   16.45</time>
   <time name="total">   27.86   29.14</time>
   <energy>
    <i name="e_fr_energy">   -377.34097727 </i>
    <i name="e_wo_entrp">   -377.34097727 </i>
    <i name="e_0_energy">   -377.34097727 </i>
   </energy>
  </scstep>
  <scstep>
   <time name="dav">   15.00   16.28</time>
   <time name="total">   27.63   28.96</time>
   <energy>
    <i name="e_fr_energy">   -377.34079881 </i>
    <i name="e_wo_entrp">   -377.34079881 </i>
    <i name="e_0_energy">   -377.34079881 </i>
   </energy>
  </scstep>
  <scstep>
   <time name="dav">   15.20   16.45</time>
   <time name="total">   27.82   29.12</time>
   <energy>
    <i name="e_fr_energy">   -377.35094915 </i>
    <i name="e_wo_entrp">   -377.35094915 </i>
    <i name="e_0_energy">   -377.35094915 </i>
   </energy>
  </scstep>
  <scstep>
   <time name="dav">   15.05   16.27</time>
   <time name="total">   27.81   29.06</time>
   <energy>
    <i name="e_fr_energy">   -377.35714790 </i>
    <i name="e_wo_entrp">   -377.35714790 </i>
    <i name="e_0_energy">   -377.35714790 </i>
   </energy>
  </scstep>
  <scstep>
   <time name="dav">   17.26   18.74</time>
   <time name="total">   29.95   31.46</time>
   <energy>
    <i name="e_fr_energy">   -377.36107325 </i>
    <i name="e_wo_entrp">   -377.36107325 </i>
    <i name="e_0_energy">   -377.36107325 </i>
   </energy>
  </scstep>
  <scstep>
   <time name="dav">   15.15   16.39</time>
   <time name="total">   27.70   29.03</time>
   <energy>
    <i name="e_fr_energy">   -377.36573682 </i>
    <i name="e_wo_entrp">   -377.36573682 </i>
    <i name="e_0_energy">   -377.36573682 </i>
   </energy>
  </scstep>
  <scstep>
   <time name="dav">   14.94   16.46</time>
   <time name="total">   27.59   29.21</time>
   <energy>
    <i name="e_fr_energy">   -377.36815960 </i>
    <i name="e_wo_entrp">   -377.36815960 </i>
    <i name="e_0_energy">   -377.36815960 </i>
   </energy>
  </scstep>
  <scstep>
   <time name="dav">   14.98   16.26</time>
   <time name="total">   27.52   28.88</time>
   <energy>
    <i name="e_fr_energy">   -377.36984516 </i>
    <i name="e_wo_entrp">   -377.36984516 </i>
    <i name="e_0_energy">   -377.36984516 </i>
   </energy>
  </scstep>
  <scstep>
   <time name="dav">   15.12   16.43</time>
   <time name="total">   27.70   29.06</time>
   <energy>
    <i name="e_fr_energy">   -377.37122851 </i>
    <i name="e_wo_entrp">   -377.37122851 </i>
    <i name="e_0_energy">   -377.37122851 </i>
   </energy>
  </scstep>
  <scstep>
   <time name="dav">   13.06   14.23</time>
   <time name="total">   25.87   27.08</time>
   <energy>
    <i name="e_fr_energy">   -377.37183604 </i>
    <i name="e_wo_entrp">   -377.37183604 </i>
    <i name="e_0_energy">   -377.37183604 </i>
   </energy>
  </scstep>
  <scstep>
   <time name="dav">   13.16   14.29</time>
   <time name="total">   25.83   26.98</time>
   <energy>
    <i name="e_fr_energy">   -377.37225217 </i>
    <i name="e_wo_entrp">   -377.37225217 </i>
    <i name="e_0_energy">   -377.37225217 </i>
   </energy>
  </scstep>
  <scstep>
   <time name="dav">   13.10   14.22</time>
   <time name="total">   25.75   26.90</time>
   <energy>
    <i name="e_fr_energy">   -377.37250600 </i>
    <i name="e_wo_entrp">   -377.37250600 </i>
    <i name="e_0_energy">   -377.37250600 </i>
   </energy>
  </scstep>
  <scstep>
   <time name="dav">   13.23   14.36</time>
   <time name="total">   25.95   27.10</time>
   <energy>
    <i name="e_fr_energy">   -377.37264023 </i>
    <i name="e_wo_entrp">   -377.37264023 </i>
    <i name="e_0_energy">   -377.37264023 </i>
   </energy>
  </scstep>
  <scstep>
   <time name="dav">   13.21   14.36</time>
   <time name="total">   26.10   27.27</time>
   <energy>
    <i name="e_fr_energy">   -377.37271797 </i>
    <i name="e_wo_entrp">   -377.37271797 </i>
    <i name="e_0_energy">   -377.37271797 </i>
   </energy>
  </scstep>
  <scstep>
   <time name="dav">   13.08   14.25</time>
   <time name="total">   25.82   27.05</time>
   <energy>
    <i name="e_fr_energy">   -377.37274992 </i>
    <i name="e_wo_entrp">   -377.37274992 </i>
    <i name="e_0_energy">   -377.37274992 </i>
   </energy>
  </scstep>
  <scstep>
   <time name="dav">   13.27   14.41</time>
   <time name="total">   25.89   27.24</time>
   <energy>
    <i name="e_fr_energy">   -377.37277220 </i>
    <i name="e_wo_entrp">   -377.37277220 </i>
    <i name="e_0_energy">   -377.37277220 </i>
   </energy>
  </scstep>
  <scstep>
   <time name="dav">   13.11   14.26</time>
   <time name="total">   20.57   21.74</time>
   <energy>
    <i name="alphaZ">     12.91687988 </i>
    <i name="ewald">  23283.59746562 </i>
    <i name="hartreedc"> -29125.34339283 </i>
    <i name="XCdc">    424.27391671 </i>
    <i name="pawpsdc">  81148.47053715 </i>
    <i name="pawaedc"> -80975.25002042 </i>
    <i name="eentropy">     -0.00000000 </i>
    <i name="bandstr">  -2739.43807847 </i>
    <i name="atom">   7593.39991119 </i>
    <i name="e_fr_energy">   -377.37278116 </i>
    <i name="e_wo_entrp">   -377.37278116 </i>
    <i name="e_0_energy">   -377.37278116 </i>
   </energy>
  </scstep>
  <structure>
   <crystal>
    <varray name="basis" >
     <v>      20.00000000       0.00000000       0.00000000 </v>
     <v>       0.00000000      20.00000000       0.00000000 </v>
     <v>       0.00000000       0.00000000      20.00000000 </v>
    </varray>
    <i name="volume">   8000.00000000 </i>
    <varray name="rec_basis" >
     <v>       0.05000000       0.00000000       0.00000000 </v>
     <v>       0.00000000       0.05000000       0.00000000 </v>
     <v>       0.00000000       0.00000000       0.05000000 </v>
    </varray>
   </crystal>
   <varray name="positions" >
    <v>       0.63096398       0.37761922       0.65422416 </v>
    <v>       0.43793752       0.56561110       0.32757008 </v>
    <v>       0.45581208       0.52423376       0.38051465 </v>
    <v>       0.47372925       0.61530131       0.44986522 </v>
    <v>       0.45595175       0.65963312       0.39935201 </v>
    <v>       0.43785737       0.63472201       0.33675972 </v>
    <v>       0.52307882       0.32955005       0.67474498 </v>
    <v>       0.49710163       0.37190466       0.62618823 </v>
    <v>       0.60227374       0.41933300       0.60593616 </v>
    <v>       0.29334713       0.47671938       0.56830116 </v>
    <v>       0.73964927       0.52855915       0.53463181 </v>
    <v>       0.70082162       0.56612858       0.49044049 </v>
    <v>       0.63257913       0.55363620       0.48652424 </v>
    <v>       0.63952130       0.46927713       0.56732841 </v>
    <v>       0.70843899       0.47974495       0.57314689 </v>
    <v>       0.59134754       0.33224398       0.68903016 </v>
    <v>       0.36211554       0.48866484       0.56417415 </v>
    <v>       0.40790931       0.62211625       0.69058213 </v>
    <v>       0.47619960       0.62606623       0.67660612 </v>
    <v>       0.50295190       0.58590820       0.62668073 </v>
    <v>       0.39825425       0.53800137       0.60426081 </v>
    <v>       0.36904589       0.57756069       0.65398228 </v>
    <v>       0.37289802       0.40579857       0.48223443 </v>
    <v>       0.30486503       0.39173492       0.48443166 </v>
    <v>       0.26422003       0.42785518       0.52821594 </v>
    <v>       0.48989745       0.29510618       0.70074864 </v>
    <v>       0.61334240       0.29968355       0.72673159 </v>
    <v>       0.68424189       0.38076917       0.66478776 </v>
    <v>       0.54225374       0.36233861       0.46129841 </v>
    <v>       0.31579090       0.57306911       0.66420366 </v>
    <v>       0.44416348       0.37118871       0.61364770 </v>
    <v>       0.42392665       0.66833230       0.29622671 </v>
    <v>       0.45642762       0.71313270       0.40950260 </v>
    <v>       0.48809132       0.63358802       0.49907234 </v>
    <v>       0.56912778       0.41808713       0.41480476 </v>
    <v>       0.73767440       0.44963919       0.60776512 </v>
    <v>       0.72277620       0.60481012       0.45904817 </v>
    <v>       0.45570253       0.47012894       0.37468790 </v>
    <v>       0.40614333       0.37888556       0.44852541 </v>
    <v>       0.28443799       0.35306162       0.45202062 </v>
    <v>       0.79326502       0.53703787       0.53892527 </v>
    <v>       0.55589708       0.58769132       0.61440612 </v>
    <v>       0.42412006       0.54328620       0.27986105 </v>
    <v>       0.50894741       0.65984570       0.70400156 </v>
    <v>       0.26265982       0.50568523       0.60265428 </v>
    <v>       0.21072272       0.41813760       0.53105039 </v>
    <v>       0.60090654       0.58197914       0.45254259 </v>
    <v>       0.38544357       0.65296704       0.72941133 </v>
    <v>       0.47424490       0.54794204       0.44140236 </v>
    <v>       0.40180479       0.45306079       0.52108436 </v>
    <v>       0.53520702       0.41608490       0.59173240 </v>
    <v>       0.46544808       0.54254992       0.59041194 </v>
    <v>       0.60138410       0.50650621       0.52397638 </v>
    <v>       0.53073984       0.40562607       0.44215451 </v>
    <v>       0.50088568       0.48087016       0.51934246 </v>
   </varray>
  </structure>
  <varray name="forces" >
   <v>      -0.21760369      -0.02262258      -0.03156495 </v>
   <v>       0.00090046      -0.00616580       0.00357403 </v>
   <v>       0.00094957      -0.05485530       0.00909716 </v>
   <v>       0.01518113       0.01131465       0.04078418 </v>
   <v>       0.00652397       0.00182790       0.00779441 </v>
   <v>       0.00111073      -0.00380953       0.00600210 </v>
   <v>      -0.03093834       0.07831767      -0.08129708 </v>
   <v>       0.08109859      -0.14835755       0.20641548 </v>
   <v>       0.37424706      -0.34892230       0.45262394 </v>
   <v>       0.00542134       0.01015035       0.01061865 </v>
   <v>       0.07400137       0.01229164       0.00503085 </v>
   <v>       0.04477290      -0.03946674       0.04900102 </v>
   <v>      -0.08243673      -0.04886479       0.03049700 </v>
   <v>       0.19195269      -0.03256770       0.08007914 </v>
   <v>      -0.04935213      -0.05319826       0.04620917 </v>
   <v>       0.47305597       0.58339811      -0.44942216 </v>
   <v>       0.00264367      -0.00328011      -0.01867105 </v>
   <v>       0.01634075      -0.00664076      -0.01513482 </v>
   <v>       0.00784062       0.01039380       0.01478585 </v>
   <v>      -0.00420494      -0.02039148      -0.02410561 </v>
   <v>       0.01706084      -0.00351421      -0.02078708 </v>
   <v>      -0.00879958      -0.00188831      -0.00212122 </v>
   <v>       0.04648464      -0.00152838      -0.00481132 </v>
   <v>      -0.02114548      -0.00321093       0.00646085 </v>
   <v>       0.01704152      -0.00922065      -0.01315994 </v>
   <v>       0.07442762      -0.01756226       0.03255715 </v>
   <v>       0.15036251       0.07960749      -0.04357900 </v>
   <v>      -1.16656606      -0.07936095      -0.21276612 </v>
   <v>      -0.01502958      -0.01476725      -0.07481653 </v>
   <v>      -0.00087663       0.00718757      -0.00178702 </v>
   <v>      -0.01056371      -0.00362158      -0.00429408 </v>
   <v>      -0.00364140       0.00508582      -0.00097597 </v>
   <v>       0.00381787      -0.00074345       0.00303529 </v>
   <v>      -0.00337717       0.01555962      -0.00317503 </v>
   <v>      -0.00848824      -0.00998259      -0.05306610 </v>
   <v>       0.08394767       0.01481756       0.00292788 </v>
   <v>       0.01330164       0.00355640      -0.00480875 </v>
   <v>      -0.01368946      -0.00093813      -0.01504500 </v>
   <v>      -0.00577369      -0.00558445      -0.01432414 </v>
   <v>       0.00032296      -0.00497521      -0.00357534 </v>
   <v>      -0.00033295      -0.00180709       0.00423910 </v>
   <v>       0.00528245       0.02043928       0.00221581 </v>
   <v>      -0.00447308      -0.00300984       0.00604689 </v>
   <v>       0.00064037       0.00592928      -0.00119390 </v>
   <v>      -0.00310939      -0.00067525      -0.00319955 </v>
   <v>      -0.00496103      -0.00046513      -0.00293899 </v>
   <v>      -0.00956157      -0.00948530       0.00524403 </v>
   <v>      -0.00282301       0.00816412       0.00567088 </v>
   <v>      -0.02003566       0.01610314       0.01421192 </v>
   <v>      -0.09688337      -0.02786913       0.01237273 </v>
   <v>       0.12475685       0.12495658      -0.07168061 </v>
   <v>      -0.08871487       0.11019939       0.12114498 </v>
   <v>      -0.15244383      -0.04770773       0.00459827 </v>
   <v>       0.01496948       0.03258407       0.05842180 </v>
   <v>       0.17736837      -0.11482374      -0.06935919 </v>
  </varray>
  <varray name="stress" >
   <v>      -2.99442747      -0.03790856      -0.08016234 </v>
   <v>      -0.03790856      -2.90577992       0.35557146 </v>
   <v>      -0.08016234       0.35557146      -2.92768332 </v>
  </varray>
  <energy>
   <i name="e_fr_energy">   -377.37278116 </i>
   <i name="e_wo_entrp">   -377.37278116 </i>
   <i name="e_0_energy">     -0.00000000 </i>
  </energy>
  <time name="totalsc"> 1006.81 1045.05</time>
  <eigenvalues>
   <array>
    <dimension dim="1">band</dimension>
    <dimension dim="2">kpoint</dimension>
    <dimension dim="3">spin</dimension>
    <field>eigene</field>
    <field>occ</field>
    <set>
     <set comment="spin 1">
      <set comment="kpoint 1">
       <r>  -49.0595    1.0000 </r>
       <r>  -48.9600    1.0000 </r>
       <r>  -48.6896    1.0000 </r>
       <r>  -29.1942    1.0000 </r>
       <r>  -27.5790    1.0000 </r>
       <r>  -26.8393    1.0000 </r>
       <r>  -26.6252    1.0000 </r>
       <r>  -26.1227    1.0000 </r>
       <r>  -26.0895    1.0000 </r>
       <r>  -24.1196    1.0000 </r>
       <r>  -23.0582    1.0000 </r>
       <r>  -22.6571    1.0000 </r>
       <r>  -22.3944    1.0000 </r>
       <r>  -22.2829    1.0000 </r>
       <r>  -22.1570    1.0000 </r>
       <r>  -21.9586    1.0000 </r>
       <r>  -21.5493    1.0000 </r>
       <r>  -21.0295    1.0000 </r>
       <r>  -20.7574    1.0000 </r>
       <r>  -19.6319    1.0000 </r>
       <r>  -19.3777    1.0000 </r>
       <r>  -18.6954    1.0000 </r>
       <r>  -18.4118    1.0000 </r>
       <r>  -18.2556    1.0000 </r>
       <r>  -18.0362    1.0000 </r>
       <r>  -17.7682    1.0000 </r>
       <r>  -17.5729    1.0000 </r>
       <r>  -17.5453    1.0000 </r>
       <r>  -17.2676    1.0000 </r>
       <r>  -16.8702    1.0000 </r>
       <r>  -16.6711    1.0000 </r>
       <r>  -15.8756    1.0000 </r>
       <r>  -15.7465    1.0000 </r>
       <r>  -15.4525    1.0000 </r>
       <r>  -15.1927    1.0000 </r>
       <r>  -14.8932    1.0000 </r>
       <r>  -14.7325    1.0000 </r>
       <r>  -14.6677    1.0000 </r>
       <r>  -14.4979    1.0000 </r>
       <r>  -14.0988    1.0000 </r>
       <r>  -14.0353    1.0000 </r>
       <r>  -13.9879    1.0000 </r>
       <r>  -13.9479    1.0000 </r>
       <r>  -13.8982    1.0000 </r>
       <r>  -13.7552    1.0000 </r>
       <r>  -13.6397    1.0000 </r>
       <r>  -13.3968    1.0000 </r>
       <r>  -13.3164    1.0000 </r>
       <r>  -13.1900    1.0000 </r>
       <r>  -13.1555    1.0000 </r>
       <r>  -12.9728    1.0000 </r>
       <r>  -12.8586    1.0000 </r>
       <r>  -12.6893    1.0000 </r>
       <r>  -12.6345    1.0000 </r>
       <r>  -12.5321    1.0000 </r>
       <r>  -12.3840    1.0000 </r>
       <r>  -12.2972    1.0000 </r>
       <r>  -12.2107    1.0000 </r>
       <r>  -12.1615    1.0000 </r>
       <r>  -12.0127    1.0000 </r>
       <r>  -11.5730    1.0000 </r>
       <r>  -11.5339    1.0000 </r>
       <r>  -11.2557    1.0000 </r>
       <r>  -11.2197    1.0000 </r>
       <r>  -11.0977    1.0000 </r>
       <r>  -11.0233    1.0000 </r>
       <r>  -10.8075    1.0000 </r>
       <r>  -10.6613    1.0000 </r>
       <r>  -10.4825    1.0000 </r>
       <r>  -10.3969    1.0000 </r>
       <r>  -10.0554    1.0000 </r>
       <r>   -9.9631    1.0000 </r>
       <r>   -9.9070    1.0000 </r>
       <r>   -9.7513    1.0000 </r>
       <r>   -9.7057    1.0000 </r>
       <r>   -9.6627    1.0000 </r>
       <r>   -9.3083    1.0000 </r>
       <r>   -9.1038    1.0000 </r>
       <r>   -8.6484    1.0000 </r>
       <r>   -8.3424    1.0000 </r>
       <r>   -7.4045    1.0000 </r>
       <r>   -7.2333    1.0000 </r>
       <r>   -7.1210    1.0000 </r>
       <r>   -5.6984    0.0000 </r>
       <r>   -5.3099    0.0000 </r>
       <r>   -4.9218    0.0000 </r>
       <r>   -4.4206    0.0000 </r>
       <r>   -4.1222    0.0000 </r>
       <r>   -4.0456    0.0000 </r>
       <r>   -3.9199    0.0000 </r>
       <r>   -3.8540    0.0000 </r>
       <r>   -3.4340    0.0000 </r>
       <r>   -3.3114    0.0000 </r>
       <r>   -3.1451    0.0000 </r>
       <r>   -2.9266    0.0000 </r>
       <r>   -2.6801    0.0000 </r>
       <r>   -2.0342    0.0000 </r>
       <r>   -1.7272    0.0000 </r>
       <r>   -1.6636    0.0000 </r>
       <r>   -1.4706    0.0000 </r>
       <r>   -1.2872    0.0000 </r>
       <r>   -1.1404    0.0000 </r>
       <r>   -1.0613    0.0000 </r>
       <r>   -0.9878    0.0000 </r>
       <r>   -0.9365    0.0000 </r>
       <r>   -0.7598    0.0000 </r>
       <r>   -0.6537    0.0000 </r>
       <r>   -0.6001    0.0000 </r>
       <r>   -0.5541    0.0000 </r>
       <r>   -0.4472    0.0000 </r>
       <r>   -0.4152    0.0000 </r>
       <r>   -0.3184    0.0000 </r>
       <r>   -0.2768    0.0000 </r>
       <r>   -0.1374    0.0000 </r>
       <r>   -0.0051    0.0000 </r>
       <r>    0.0162    0.0000 </r>
       <r>    0.0783    0.0000 </r>
       <r>    0.1216    0.0000 </r>
       <r>    0.1654    0.0000 </r>
       <r>    0.2339    0.0000 </r>
       <r>    0.2722    0.0000 </r>
       <r>    0.3714    0.0000 </r>
       <r>    0.4125    0.0000 </r>
       <r>    0.4648    0.0000 </r>
       <r>    0.5741    0.0000 </r>
       <r>    0.6555    0.0000 </r>
       <r>    0.6647    0.0000 </r>
       <r>    0.7257    0.0000 </r>
      </set>
     </set>
     <set comment="spin 2">
      <set comment="kpoint 1">
       <r>  -49.0595    1.0000 </r>
       <r>  -48.9600    1.0000 </r>
       <r>  -48.6896    1.0000 </r>
       <r>  -29.1942    1.0000 </r>
       <r>  -27.5790    1.0000 </r>
       <r>  -26.8393    1.0000 </r>
       <r>  -26.6252    1.0000 </r>
       <r>  -26.1227    1.0000 </r>
       <r>  -26.0895    1.0000 </r>
       <r>  -24.1196    1.0000 </r>
       <r>  -23.0582    1.0000 </r>
       <r>  -22.6571    1.0000 </r>
       <r>  -22.3944    1.0000 </r>
       <r>  -22.2829    1.0000 </r>
       <r>  -22.1570    1.0000 </r>
       <r>  -21.9586    1.0000 </r>
       <r>  -21.5493    1.0000 </r>
       <r>  -21.0295    1.0000 </r>
       <r>  -20.7574    1.0000 </r>
       <r>  -19.6319    1.0000 </r>
       <r>  -19.3777    1.0000 </r>
       <r>  -18.6954    1.0000 </r>
       <r>  -18.4118    1.0000 </r>
       <r>  -18.2556    1.0000 </r>
       <r>  -18.0362    1.0000 </r>
       <r>  -17.7682    1.0000 </r>
       <r>  -17.5729    1.0000 </r>
       <r>  -17.5453    1.0000 </r>
       <r>  -17.2676    1.0000 </r>
       <r>  -16.8702    1.0000 </r>
       <r>  -16.6711    1.0000 </r>
       <r>  -15.8756    1.0000 </r>
       <r>  -15.7465    1.0000 </r>
       <r>  -15.4525    1.0000 </r>
       <r>  -15.1927    1.0000 </r>
       <r>  -14.8932    1.0000 </r>
       <r>  -14.7325    1.0000 </r>
       <r>  -14.6677    1.0000 </r>
       <r>  -14.4979    1.0000 </r>
       <r>  -14.0988    1.0000 </r>
       <r>  -14.0353    1.0000 </r>
       <r>  -13.9879    1.0000 </r>
       <r>  -13.9479    1.0000 </r>
       <r>  -13.8982    1.0000 </r>
       <r>  -13.7552    1.0000 </r>
       <r>  -13.6397    1.0000 </r>
       <r>  -13.3968    1.0000 </r>
       <r>  -13.3164    1.0000 </r>
       <r>  -13.1900    1.0000 </r>
       <r>  -13.1555    1.0000 </r>
       <r>  -12.9728    1.0000 </r>
       <r>  -12.8586    1.0000 </r>
       <r>  -12.6893    1.0000 </r>
       <r>  -12.6345    1.0000 </r>
       <r>  -12.5321    1.0000 </r>
       <r>  -12.3840    1.0000 </r>
       <r>  -12.2972    1.0000 </r>
       <r>  -12.2107    1.0000 </r>
       <r>  -12.1615    1.0000 </r>
       <r>  -12.0127    1.0000 </r>
       <r>  -11.5730    1.0000 </r>
       <r>  -11.5339    1.0000 </r>
       <r>  -11.2557    1.0000 </r>
       <r>  -11.2197    1.0000 </r>
       <r>  -11.0977    1.0000 </r>
       <r>  -11.0233    1.0000 </r>
       <r>  -10.8075    1.0000 </r>
       <r>  -10.6613    1.0000 </r>
       <r>  -10.4825    1.0000 </r>
       <r>  -10.3969    1.0000 </r>
       <r>  -10.0554    1.0000 </r>
       <r>   -9.9631    1.0000 </r>
       <r>   -9.9070    1.0000 </r>
       <r>   -9.7513    1.0000 </r>
       <r>   -9.7057    1.0000 </r>
       <r>   -9.6627    1.0000 </r>
       <r>   -9.3083    1.0000 </r>
       <r>   -9.1038    1.0000 </r>
       <r>   -8.6484    1.0000 </r>
       <r>   -8.3424    1.0000 </r>
       <r>   -7.4045    1.0000 </r>
       <r>   -7.2333    1.0000 </r>
       <r>   -7.1210    1.0000 </r>
       <r>   -5.6984    0.0000 </r>
       <r>   -5.3099    0.0000 </r>
       <r>   -4.9218    0.0000 </r>
       <r>   -4.4206    0.0000 </r>
       <r>   -4.1222    0.0000 </r>
       <r>   -4.0456    0.0000 </r>
       <r>   -3.9199    0.0000 </r>
       <r>   -3.8540    0.0000 </r>
       <r>   -3.4339    0.0000 </r>
       <r>   -3.3114    0.0000 </r>
       <r>   -3.1451    0.0000 </r>
       <r>   -2.9266    0.0000 </r>
       <r>   -2.6801    0.0000 </r>
       <r>   -2.0342    0.0000 </r>
       <r>   -1.7272    0.0000 </r>
       <r>   -1.6636    0.0000 </r>
       <r>   -1.4706    0.0000 </r>
       <r>   -1.2872    0.0000 </r>
       <r>   -1.1404    0.0000 </r>
       <r>   -1.0613    0.0000 </r>
       <r>   -0.9878    0.0000 </r>
       <r>   -0.9365    0.0000 </r>
       <r>   -0.7598    0.0000 </r>
       <r>   -0.6537    0.0000 </r>
       <r>   -0.6000    0.0000 </r>
       <r>   -0.5541    0.0000 </r>
       <r>   -0.4472    0.0000 </r>
       <r>   -0.4152    0.0000 </r>
       <r>   -0.3184    0.0000 </r>
       <r>   -0.2768    0.0000 </r>
       <r>   -0.1374    0.0000 </r>
       <r>   -0.0051    0.0000 </r>
       <r>    0.0163    0.0000 </r>
       <r>    0.0783    0.0000 </r>
       <r>    0.1217    0.0000 </r>
       <r>    0.1654    0.0000 </r>
       <r>    0.2339    0.0000 </r>
       <r>    0.2722    0.0000 </r>
       <r>    0.3714    0.0000 </r>
       <r>    0.4125    0.0000 </r>
       <r>    0.4648    0.0000 </r>
       <r>    0.5741    0.0000 </r>
       <r>    0.6556    0.0000 </r>
       <r>    0.6647    0.0000 </r>
       <r>    0.7256    0.0000 </r>
      </set>
     </set>
    </set>
   </array>
  </eigenvalues>
  <separator name="orbital magnetization" >
   <v name="MAGDIPOLOUT">      0.00000000      0.00000000      0.00000000</v>
  </separator>
  <dos>
   <i name="efermi">     -6.96199666 </i>
   <total>
    <array>
     <dimension dim="1">gridpoints</dimension>
     <dimension dim="2">spin</dimension>
     <field>energy</field>
     <field>total</field>
     <field>integrated</field>
     <set>
      <set comment="spin 1">
       <r>   -51.5488     0.0000     0.0000 </r>
       <r>   -51.3662     0.0000     0.0000 </r>
       <r>   -51.1837     0.0000     0.0000 </r>
       <r>   -51.0011     0.0000     0.0000 </r>
       <r>   -50.8186     0.0000     0.0000 </r>
       <r>   -50.6360     0.0000     0.0000 </r>
       <r>   -50.4535     0.0000     0.0000 </r>
       <r>   -50.2710     0.0000     0.0000 </r>
       <r>   -50.0884     0.0000     0.0000 </r>
       <r>   -49.9059     0.0000     0.0000 </r>
       <r>   -49.7233     0.0000     0.0000 </r>
       <r>   -49.5408     0.0000     0.0000 </r>
       <r>   -49.3582     0.0000     0.0000 </r>
       <r>   -49.1757     0.0000     0.0000 </r>
       <r>   -48.9931    10.9562     2.0000 </r>
       <r>   -48.8106     0.0000     4.0000 </r>
       <r>   -48.6280    10.9562     6.0000 </r>
       <r>   -48.4455     0.0000     6.0000 </r>
       <r>   -48.2630     0.0000     6.0000 </r>
       <r>   -48.0804     0.0000     6.0000 </r>
       <r>   -47.8979     0.0000     6.0000 </r>
       <r>   -47.7153     0.0000     6.0000 </r>
       <r>   -47.5328     0.0000     6.0000 </r>
       <r>   -47.3502     0.0000     6.0000 </r>
       <r>   -47.1677     0.0000     6.0000 </r>
       <r>   -46.9851     0.0000     6.0000 </r>
       <r>   -46.8026     0.0000     6.0000 </r>
       <r>   -46.6200     0.0000     6.0000 </r>
       <r>   -46.4375     0.0000     6.0000 </r>
       <r>   -46.2549     0.0000     6.0000 </r>
       <r>   -46.0724     0.0000     6.0000 </r>
       <r>   -45.8899     0.0000     6.0000 </r>
       <r>   -45.7073     0.0000     6.0000 </r>
       <r>   -45.5248     0.0000     6.0000 </r>
       <r>   -45.3422     0.0000     6.0000 </r>
       <r>   -45.1597     0.0000     6.0000 </r>
       <r>   -44.9771     0.0000     6.0000 </r>
       <r>   -44.7946     0.0000     6.0000 </r>
       <r>   -44.6120     0.0000     6.0000 </r>
       <r>   -44.4295     0.0000     6.0000 </r>
       <r>   -44.2469     0.0000     6.0000 </r>
       <r>   -44.0644     0.0000     6.0000 </r>
       <r>   -43.8819     0.0000     6.0000 </r>
       <r>   -43.6993     0.0000     6.0000 </r>
       <r>   -43.5168     0.0000     6.0000 </r>
       <r>   -43.3342     0.0000     6.0000 </r>
       <r>   -43.1517     0.0000     6.0000 </r>
       <r>   -42.9691     0.0000     6.0000 </r>
       <r>   -42.7866     0.0000     6.0000 </r>
       <r>   -42.6040     0.0000     6.0000 </r>
       <r>   -42.4215     0.0000     6.0000 </r>
       <r>   -42.2389     0.0000     6.0000 </r>
       <r>   -42.0564     0.0000     6.0000 </r>
       <r>   -41.8739     0.0000     6.0000 </r>
       <r>   -41.6913     0.0000     6.0000 </r>
       <r>   -41.5088     0.0000     6.0000 </r>
       <r>   -41.3262     0.0000     6.0000 </r>
       <r>   -41.1437     0.0000     6.0000 </r>
       <r>   -40.9611     0.0000     6.0000 </r>
       <r>   -40.7786     0.0000     6.0000 </r>
       <r>   -40.5960     0.0000     6.0000 </r>
       <r>   -40.4135     0.0000     6.0000 </r>
       <r>   -40.2309     0.0000     6.0000 </r>
       <r>   -40.0484     0.0000     6.0000 </r>
       <r>   -39.8659     0.0000     6.0000 </r>
       <r>   -39.6833     0.0000     6.0000 </r>
       <r>   -39.5008     0.0000     6.0000 </r>
       <r>   -39.3182     0.0000     6.0000 </r>
       <r>   -39.1357     0.0000     6.0000 </r>
       <r>   -38.9531     0.0000     6.0000 </r>
       <r>   -38.7706     0.0000     6.0000 </r>
       <r>   -38.5880     0.0000     6.0000 </r>
       <r>   -38.4055     0.0000     6.0000 </r>
       <r>   -38.2229     0.0000     6.0000 </r>
       <r>   -38.0404     0.0000     6.0000 </r>
       <r>   -37.8578     0.0000     6.0000 </r>
       <r>   -37.6753     0.0000     6.0000 </r>
       <r>   -37.4928     0.0000     6.0000 </r>
       <r>   -37.3102     0.0000     6.0000 </r>
       <r>   -37.1277     0.0000     6.0000 </r>
       <r>   -36.9451     0.0000     6.0000 </r>
       <r>   -36.7626     0.0000     6.0000 </r>
       <r>   -36.5800     0.0000     6.0000 </r>
       <r>   -36.3975     0.0000     6.0000 </r>
       <r>   -36.2149     0.0000     6.0000 </r>
       <r>   -36.0324     0.0000     6.0000 </r>
       <r>   -35.8498     0.0000     6.0000 </r>
       <r>   -35.6673     0.0000     6.0000 </r>
       <r>   -35.4848     0.0000     6.0000 </r>
       <r>   -35.3022     0.0000     6.0000 </r>
       <r>   -35.1197     0.0000     6.0000 </r>
       <r>   -34.9371     0.0000     6.0000 </r>
       <r>   -34.7546     0.0000     6.0000 </r>
       <r>   -34.5720     0.0000     6.0000 </r>
       <r>   -34.3895     0.0000     6.0000 </r>
       <r>   -34.2069     0.0000     6.0000 </r>
       <r>   -34.0244     0.0000     6.0000 </r>
       <r>   -33.8418     0.0000     6.0000 </r>
       <r>   -33.6593     0.0000     6.0000 </r>
       <r>   -33.4768     0.0000     6.0000 </r>
       <r>   -33.2942     0.0000     6.0000 </r>
       <r>   -33.1117     0.0000     6.0000 </r>
       <r>   -32.9291     0.0000     6.0000 </r>
       <r>   -32.7466     0.0000     6.0000 </r>
       <r>   -32.5640     0.0000     6.0000 </r>
       <r>   -32.3815     0.0000     6.0000 </r>
       <r>   -32.1989     0.0000     6.0000 </r>
       <r>   -32.0164     0.0000     6.0000 </r>
       <r>   -31.8338     0.0000     6.0000 </r>
       <r>   -31.6513     0.0000     6.0000 </r>
       <r>   -31.4688     0.0000     6.0000 </r>
       <r>   -31.2862     0.0000     6.0000 </r>
       <r>   -31.1037     0.0000     6.0000 </r>
       <r>   -30.9211     0.0000     6.0000 </r>
       <r>   -30.7386     0.0000     6.0000 </r>
       <r>   -30.5560     0.0000     6.0000 </r>
       <r>   -30.3735     0.0000     6.0000 </r>
       <r>   -30.1909     0.0000     6.0000 </r>
       <r>   -30.0084     0.0000     6.0000 </r>
       <r>   -29.8258     0.0000     6.0000 </r>
       <r>   -29.6433     0.0000     6.0000 </r>
       <r>   -29.4607     0.0000     6.0000 </r>
       <r>   -29.2782     0.0000     6.0000 </r>
       <r>   -29.0957     0.0000     8.0000 </r>
       <r>   -28.9131     0.0000     8.0000 </r>
       <r>   -28.7306     0.0000     8.0000 </r>
       <r>   -28.5480     0.0000     8.0000 </r>
       <r>   -28.3655     0.0000     8.0000 </r>
       <r>   -28.1829     0.0000     8.0000 </r>
       <r>   -28.0004     0.0000     8.0000 </r>
       <r>   -27.8178     0.0000     8.0000 </r>
       <r>   -27.6353     0.0000     8.0000 </r>
       <r>   -27.4527     0.0000    10.0000 </r>
       <r>   -27.2702     0.0000    10.0000 </r>
       <r>   -27.0877     0.0000    10.0000 </r>
       <r>   -26.9051     0.0000    10.0000 </r>
       <r>   -26.7226     0.0000    12.0000 </r>
       <r>   -26.5400     0.0000    14.0000 </r>
       <r>   -26.3575     0.0000    14.0000 </r>
       <r>   -26.1749     0.0000    14.0000 </r>
       <r>   -25.9924     0.0000    18.0000 </r>
       <r>   -25.8098     0.0000    18.0000 </r>
       <r>   -25.6273     0.0000    18.0000 </r>
       <r>   -25.4447     0.0000    18.0000 </r>
       <r>   -25.2622     0.0000    18.0000 </r>
       <r>   -25.0797     0.0000    18.0000 </r>
       <r>   -24.8971     0.0000    18.0000 </r>
       <r>   -24.7146     0.0000    18.0000 </r>
       <r>   -24.5320     0.0000    18.0000 </r>
       <r>   -24.3495     0.0000    18.0000 </r>
       <r>   -24.1669     0.0000    18.0000 </r>
       <r>   -23.9844     0.0000    20.0000 </r>
       <r>   -23.8018     0.0000    20.0000 </r>
       <r>   -23.6193     0.0000    20.0000 </r>
       <r>   -23.4367     0.0000    20.0000 </r>
       <r>   -23.2542     0.0000    20.0000 </r>
       <r>   -23.0717     0.3146    20.0574 </r>
       <r>   -22.8891     0.0000    22.0000 </r>
       <r>   -22.7066     0.0000    22.0000 </r>
       <r>   -22.5240     0.0000    24.0000 </r>
       <r>   -22.3415    10.9562    26.0000 </r>
       <r>   -22.1589     4.2866    28.7825 </r>
       <r>   -21.9764     0.0648    30.0118 </r>
       <r>   -21.7938     0.0000    32.0000 </r>
       <r>   -21.6113     0.0000    32.0000 </r>
       <r>   -21.4287     0.0000    34.0000 </r>
       <r>   -21.2462     0.0000    34.0000 </r>
       <r>   -21.0636     0.0000    34.0000 </r>
       <r>   -20.8811     0.0000    36.0000 </r>
       <r>   -20.6986    10.9562    38.0000 </r>
       <r>   -20.5160     0.0000    38.0000 </r>
       <r>   -20.3335     0.0000    38.0000 </r>
       <r>   -20.1509     0.0000    38.0000 </r>
       <r>   -19.9684     0.0000    38.0000 </r>
       <r>   -19.7858     0.0000    38.0000 </r>
       <r>   -19.6033    10.9559    39.9999 </r>
       <r>   -19.4207     0.0000    40.0000 </r>
       <r>   -19.2382     0.0000    42.0000 </r>
       <r>   -19.0556     0.0000    42.0000 </r>
       <r>   -18.8731     0.0000    42.0000 </r>
       <r>   -18.6906     8.2683    43.5093 </r>
       <r>   -18.5080     0.0000    44.0000 </r>
       <r>   -18.3255     0.0000    46.0000 </r>
       <r>   -18.1429     0.0000    48.0000 </r>
       <r>   -17.9604    10.9562    50.0000 </r>
       <r>   -17.7778     0.9533    50.1740 </r>
       <r>   -17.5953     0.0084    52.0015 </r>
       <r>   -17.4127     0.0000    56.0000 </r>
       <r>   -17.2302    10.9562    58.0000 </r>
       <r>   -17.0476     0.0000    58.0000 </r>
       <r>   -16.8651     8.3544    59.5251 </r>
       <r>   -16.6826     0.5735    60.1047 </r>
       <r>   -16.5000     0.0000    62.0000 </r>
       <r>   -16.3175     0.0000    62.0000 </r>
       <r>   -16.1349     0.0000    62.0000 </r>
       <r>   -15.9524     0.0000    62.0000 </r>
       <r>   -15.7698     0.0053    64.0010 </r>
       <r>   -15.5873     0.0000    66.0000 </r>
       <r>   -15.4047    10.9562    68.0000 </r>
       <r>   -15.2222     0.0002    68.0000 </r>
       <r>   -15.0396     0.0000    70.0000 </r>
       <r>   -14.8571    10.9562    72.0000 </r>
       <r>   -14.6746    12.7974    74.3361 </r>
       <r>   -14.4920     8.7488    77.5971 </r>
       <r>   -14.3095     0.0000    78.0000 </r>
       <r>   -14.1269     0.0004    78.0001 </r>
       <r>   -13.9444    18.5528    85.3867 </r>
       <r>   -13.7618     1.9224    88.3509 </r>
       <r>   -13.5793    10.9562    92.0000 </r>
       <r>   -13.3967     5.4927    93.0027 </r>
       <r>   -13.2142     0.0035    96.0006 </r>
       <r>   -13.0316     0.0000   100.0000 </r>
       <r>   -12.8491     9.9736   103.8206 </r>
       <r>   -12.6665    10.9490   105.9987 </r>
       <r>   -12.4840    10.9562   110.0000 </r>
       <r>   -12.3015     2.9723   112.5426 </r>
       <r>   -12.1189    10.9562   118.0000 </r>
       <r>   -11.9364    10.9562   120.0000 </r>
       <r>   -11.7538     0.0000   120.0000 </r>
       <r>   -11.5713     6.5615   121.1978 </r>
       <r>   -11.3887     0.0000   124.0000 </r>
       <r>   -11.2062    21.6011   127.9432 </r>
       <r>   -11.0236    16.2506   130.9665 </r>
       <r>   -10.8411     0.0000   132.0000 </r>
       <r>   -10.6585     7.1322   135.3020 </r>
       <r>   -10.4760     9.0148   137.6456 </r>
       <r>   -10.2935     0.0000   140.0000 </r>
       <r>   -10.1109     0.0000   140.0000 </r>
       <r>    -9.9284    10.9701   144.0025 </r>
       <r>    -9.7458     8.5680   147.5640 </r>
       <r>    -9.5633     0.0000   152.0000 </r>
       <r>    -9.3807     0.0000   152.0000 </r>
       <r>    -9.1982     0.0000   154.0000 </r>
       <r>    -9.0156     0.0000   156.0000 </r>
       <r>    -8.8331     0.0000   156.0000 </r>
       <r>    -8.6505     4.1624   156.7598 </r>
       <r>    -8.4680     0.0000   158.0000 </r>
       <r>    -8.2855    10.9562   160.0000 </r>
       <r>    -8.1029     0.0000   160.0000 </r>
       <r>    -7.9204     0.0000   160.0000 </r>
       <r>    -7.7378     0.0000   160.0000 </r>
       <r>    -7.5553     0.0000   160.0000 </r>
       <r>    -7.3727    10.9561   162.0000 </r>
       <r>    -7.1902    10.9562   164.0000 </r>
       <r>    -7.0076     0.0000   166.0000 </r>
       <r>    -6.8251     0.0000   166.0000 </r>
       <r>    -6.6425     0.0000   166.0000 </r>
       <r>    -6.4600     0.0000   166.0000 </r>
       <r>    -6.2775     0.0000   166.0000 </r>
       <r>    -6.0949     0.0000   166.0000 </r>
       <r>    -5.9124     0.0000   166.0000 </r>
       <r>    -5.7298     0.0000   166.0000 </r>
       <r>    -5.5473     0.0000   168.0000 </r>
       <r>    -5.3647     0.0000   168.0000 </r>
       <r>    -5.1822     0.0000   170.0000 </r>
       <r>    -4.9996     0.0000   170.0000 </r>
       <r>    -4.8171     0.0000   172.0000 </r>
       <r>    -4.6345     0.0000   172.0000 </r>
       <r>    -4.4520     0.0000   172.0000 </r>
       <r>    -4.2694     0.0000   174.0000 </r>
       <r>    -4.0869    10.9562   176.0000 </r>
       <r>    -3.9044    10.8033   179.9721 </r>
       <r>    -3.7218     0.0000   182.0000 </r>
       <r>    -3.5393     0.0000   182.0000 </r>
       <r>    -3.3567    10.9562   184.0000 </r>
       <r>    -3.1742     0.0002   186.0000 </r>
       <r>    -2.9916     0.0000   188.0000 </r>
       <r>    -2.8091     0.0000   190.0000 </r>
       <r>    -2.6265    10.9562   192.0000 </r>
       <r>    -2.4440     0.0000   192.0000 </r>
       <r>    -2.2614     0.0000   192.0000 </r>
       <r>    -2.0789     0.0000   192.0000 </r>
       <r>    -1.8964     0.0000   194.0000 </r>
       <r>    -1.7138    10.6396   195.9422 </r>
       <r>    -1.5313     0.0000   198.0000 </r>
       <r>    -1.3487     0.0000   200.0000 </r>
       <r>    -1.1662     0.0015   202.0003 </r>
       <r>    -0.9836    18.8552   207.4419 </r>
       <r>    -0.8011     0.0000   210.0000 </r>
       <r>    -0.6185    11.0052   214.0089 </r>
       <r>    -0.4360    10.3554   219.8903 </r>
       <r>    -0.2534    21.9071   225.9990 </r>
       <r>    -0.0709    10.9562   228.0000 </r>
       <r>     0.1116    11.8176   234.1573 </r>
       <r>     0.2942    21.9022   241.9982 </r>
       <r>     0.4767    21.4104   247.9084 </r>
       <r>     0.6593    10.1217   251.8477 </r>
       <r>     0.8418     0.0000   256.0000 </r>
       <r>     1.0244     0.0000   256.0000 </r>
       <r>     1.2069     0.0000   256.0000 </r>
       <r>     1.3895     0.0000   256.0000 </r>
       <r>     1.5720     0.0000   256.0000 </r>
       <r>     1.7546     0.0000   256.0000 </r>
       <r>     1.9371     0.0000   256.0000 </r>
       <r>     2.1196     0.0000   256.0000 </r>
       <r>     2.3022     0.0000   256.0000 </r>
       <r>     2.4847     0.0000   256.0000 </r>
       <r>     2.6673     0.0000   256.0000 </r>
       <r>     2.8498     0.0000   256.0000 </r>
       <r>     3.0324     0.0000   256.0000 </r>
       <r>     3.2149     0.0000   256.0000 </r>
      </set>
      <set comment="spin 2">
       <r>   -51.5488     0.0000     0.0000 </r>
       <r>   -51.3662     0.0000     0.0000 </r>
       <r>   -51.1837     0.0000     0.0000 </r>
       <r>   -51.0011     0.0000     0.0000 </r>
       <r>   -50.8186     0.0000     0.0000 </r>
       <r>   -50.6360     0.0000     0.0000 </r>
       <r>   -50.4535     0.0000     0.0000 </r>
       <r>   -50.2710     0.0000     0.0000 </r>
       <r>   -50.0884     0.0000     0.0000 </r>
       <r>   -49.9059     0.0000     0.0000 </r>
       <r>   -49.7233     0.0000     0.0000 </r>
       <r>   -49.5408     0.0000     0.0000 </r>
       <r>   -49.3582     0.0000     0.0000 </r>
       <r>   -49.1757     0.0000     0.0000 </r>
       <r>   -48.9931    10.9562     2.0000 </r>
       <r>   -48.8106     0.0000     4.0000 </r>
       <r>   -48.6280    10.9562     6.0000 </r>
       <r>   -48.4455     0.0000     6.0000 </r>
       <r>   -48.2630     0.0000     6.0000 </r>
       <r>   -48.0804     0.0000     6.0000 </r>
       <r>   -47.8979     0.0000     6.0000 </r>
       <r>   -47.7153     0.0000     6.0000 </r>
       <r>   -47.5328     0.0000     6.0000 </r>
       <r>   -47.3502     0.0000     6.0000 </r>
       <r>   -47.1677     0.0000     6.0000 </r>
       <r>   -46.9851     0.0000     6.0000 </r>
       <r>   -46.8026     0.0000     6.0000 </r>
       <r>   -46.6200     0.0000     6.0000 </r>
       <r>   -46.4375     0.0000     6.0000 </r>
       <r>   -46.2549     0.0000     6.0000 </r>
       <r>   -46.0724     0.0000     6.0000 </r>
       <r>   -45.8899     0.0000     6.0000 </r>
       <r>   -45.7073     0.0000     6.0000 </r>
       <r>   -45.5248     0.0000     6.0000 </r>
       <r>   -45.3422     0.0000     6.0000 </r>
       <r>   -45.1597     0.0000     6.0000 </r>
       <r>   -44.9771     0.0000     6.0000 </r>
       <r>   -44.7946     0.0000     6.0000 </r>
       <r>   -44.6120     0.0000     6.0000 </r>
       <r>   -44.4295     0.0000     6.0000 </r>
       <r>   -44.2469     0.0000     6.0000 </r>
       <r>   -44.0644     0.0000     6.0000 </r>
       <r>   -43.8819     0.0000     6.0000 </r>
       <r>   -43.6993     0.0000     6.0000 </r>
       <r>   -43.5168     0.0000     6.0000 </r>
       <r>   -43.3342     0.0000     6.0000 </r>
       <r>   -43.1517     0.0000     6.0000 </r>
       <r>   -42.9691     0.0000     6.0000 </r>
       <r>   -42.7866     0.0000     6.0000 </r>
       <r>   -42.6040     0.0000     6.0000 </r>
       <r>   -42.4215     0.0000     6.0000 </r>
       <r>   -42.2389     0.0000     6.0000 </r>
       <r>   -42.0564     0.0000     6.0000 </r>
       <r>   -41.8739     0.0000     6.0000 </r>
       <r>   -41.6913     0.0000     6.0000 </r>
       <r>   -41.5088     0.0000     6.0000 </r>
       <r>   -41.3262     0.0000     6.0000 </r>
       <r>   -41.1437     0.0000     6.0000 </r>
       <r>   -40.9611     0.0000     6.0000 </r>
       <r>   -40.7786     0.0000     6.0000 </r>
       <r>   -40.5960     0.0000     6.0000 </r>
       <r>   -40.4135     0.0000     6.0000 </r>
       <r>   -40.2309     0.0000     6.0000 </r>
       <r>   -40.0484     0.0000     6.0000 </r>
       <r>   -39.8659     0.0000     6.0000 </r>
       <r>   -39.6833     0.0000     6.0000 </r>
       <r>   -39.5008     0.0000     6.0000 </r>
       <r>   -39.3182     0.0000     6.0000 </r>
       <r>   -39.1357     0.0000     6.0000 </r>
       <r>   -38.9531     0.0000     6.0000 </r>
       <r>   -38.7706     0.0000     6.0000 </r>
       <r>   -38.5880     0.0000     6.0000 </r>
       <r>   -38.4055     0.0000     6.0000 </r>
       <r>   -38.2229     0.0000     6.0000 </r>
       <r>   -38.0404     0.0000     6.0000 </r>
       <r>   -37.8578     0.0000     6.0000 </r>
       <r>   -37.6753     0.0000     6.0000 </r>
       <r>   -37.4928     0.0000     6.0000 </r>
       <r>   -37.3102     0.0000     6.0000 </r>
       <r>   -37.1277     0.0000     6.0000 </r>
       <r>   -36.9451     0.0000     6.0000 </r>
       <r>   -36.7626     0.0000     6.0000 </r>
       <r>   -36.5800     0.0000     6.0000 </r>
       <r>   -36.3975     0.0000     6.0000 </r>
       <r>   -36.2149     0.0000     6.0000 </r>
       <r>   -36.0324     0.0000     6.0000 </r>
       <r>   -35.8498     0.0000     6.0000 </r>
       <r>   -35.6673     0.0000     6.0000 </r>
       <r>   -35.4848     0.0000     6.0000 </r>
       <r>   -35.3022     0.0000     6.0000 </r>
       <r>   -35.1197     0.0000     6.0000 </r>
       <r>   -34.9371     0.0000     6.0000 </r>
       <r>   -34.7546     0.0000     6.0000 </r>
       <r>   -34.5720     0.0000     6.0000 </r>
       <r>   -34.3895     0.0000     6.0000 </r>
       <r>   -34.2069     0.0000     6.0000 </r>
       <r>   -34.0244     0.0000     6.0000 </r>
       <r>   -33.8418     0.0000     6.0000 </r>
       <r>   -33.6593     0.0000     6.0000 </r>
       <r>   -33.4768     0.0000     6.0000 </r>
       <r>   -33.2942     0.0000     6.0000 </r>
       <r>   -33.1117     0.0000     6.0000 </r>
       <r>   -32.9291     0.0000     6.0000 </r>
       <r>   -32.7466     0.0000     6.0000 </r>
       <r>   -32.5640     0.0000     6.0000 </r>
       <r>   -32.3815     0.0000     6.0000 </r>
       <r>   -32.1989     0.0000     6.0000 </r>
       <r>   -32.0164     0.0000     6.0000 </r>
       <r>   -31.8338     0.0000     6.0000 </r>
       <r>   -31.6513     0.0000     6.0000 </r>
       <r>   -31.4688     0.0000     6.0000 </r>
       <r>   -31.2862     0.0000     6.0000 </r>
       <r>   -31.1037     0.0000     6.0000 </r>
       <r>   -30.9211     0.0000     6.0000 </r>
       <r>   -30.7386     0.0000     6.0000 </r>
       <r>   -30.5560     0.0000     6.0000 </r>
       <r>   -30.3735     0.0000     6.0000 </r>
       <r>   -30.1909     0.0000     6.0000 </r>
       <r>   -30.0084     0.0000     6.0000 </r>
       <r>   -29.8258     0.0000     6.0000 </r>
       <r>   -29.6433     0.0000     6.0000 </r>
       <r>   -29.4607     0.0000     6.0000 </r>
       <r>   -29.2782     0.0000     6.0000 </r>
       <r>   -29.0957     0.0000     8.0000 </r>
       <r>   -28.9131     0.0000     8.0000 </r>
       <r>   -28.7306     0.0000     8.0000 </r>
       <r>   -28.5480     0.0000     8.0000 </r>
       <r>   -28.3655     0.0000     8.0000 </r>
       <r>   -28.1829     0.0000     8.0000 </r>
       <r>   -28.0004     0.0000     8.0000 </r>
       <r>   -27.8178     0.0000     8.0000 </r>
       <r>   -27.6353     0.0000     8.0000 </r>
       <r>   -27.4527     0.0000    10.0000 </r>
       <r>   -27.2702     0.0000    10.0000 </r>
       <r>   -27.0877     0.0000    10.0000 </r>
       <r>   -26.9051     0.0000    10.0000 </r>
       <r>   -26.7226     0.0000    12.0000 </r>
       <r>   -26.5400     0.0000    14.0000 </r>
       <r>   -26.3575     0.0000    14.0000 </r>
       <r>   -26.1749     0.0000    14.0000 </r>
       <r>   -25.9924     0.0000    18.0000 </r>
       <r>   -25.8098     0.0000    18.0000 </r>
       <r>   -25.6273     0.0000    18.0000 </r>
       <r>   -25.4447     0.0000    18.0000 </r>
       <r>   -25.2622     0.0000    18.0000 </r>
       <r>   -25.0797     0.0000    18.0000 </r>
       <r>   -24.8971     0.0000    18.0000 </r>
       <r>   -24.7146     0.0000    18.0000 </r>
       <r>   -24.5320     0.0000    18.0000 </r>
       <r>   -24.3495     0.0000    18.0000 </r>
       <r>   -24.1669     0.0000    18.0000 </r>
       <r>   -23.9844     0.0000    20.0000 </r>
       <r>   -23.8018     0.0000    20.0000 </r>
       <r>   -23.6193     0.0000    20.0000 </r>
       <r>   -23.4367     0.0000    20.0000 </r>
       <r>   -23.2542     0.0000    20.0000 </r>
       <r>   -23.0717     0.3147    20.0574 </r>
       <r>   -22.8891     0.0000    22.0000 </r>
       <r>   -22.7066     0.0000    22.0000 </r>
       <r>   -22.5240     0.0000    24.0000 </r>
       <r>   -22.3415    10.9562    26.0000 </r>
       <r>   -22.1589     4.2866    28.7825 </r>
       <r>   -21.9764     0.0648    30.0118 </r>
       <r>   -21.7938     0.0000    32.0000 </r>
       <r>   -21.6113     0.0000    32.0000 </r>
       <r>   -21.4287     0.0000    34.0000 </r>
       <r>   -21.2462     0.0000    34.0000 </r>
       <r>   -21.0636     0.0000    34.0000 </r>
       <r>   -20.8811     0.0000    36.0000 </r>
       <r>   -20.6986    10.9562    38.0000 </r>
       <r>   -20.5160     0.0000    38.0000 </r>
       <r>   -20.3335     0.0000    38.0000 </r>
       <r>   -20.1509     0.0000    38.0000 </r>
       <r>   -19.9684     0.0000    38.0000 </r>
       <r>   -19.7858     0.0000    38.0000 </r>
       <r>   -19.6033    10.9559    39.9999 </r>
       <r>   -19.4207     0.0000    40.0000 </r>
       <r>   -19.2382     0.0000    42.0000 </r>
       <r>   -19.0556     0.0000    42.0000 </r>
       <r>   -18.8731     0.0000    42.0000 </r>
       <r>   -18.6906     8.2683    43.5093 </r>
       <r>   -18.5080     0.0000    44.0000 </r>
       <r>   -18.3255     0.0000    46.0000 </r>
       <r>   -18.1429     0.0000    48.0000 </r>
       <r>   -17.9604    10.9562    50.0000 </r>
       <r>   -17.7778     0.9533    50.1740 </r>
       <r>   -17.5953     0.0084    52.0015 </r>
       <r>   -17.4127     0.0000    56.0000 </r>
       <r>   -17.2302    10.9562    58.0000 </r>
       <r>   -17.0476     0.0000    58.0000 </r>
       <r>   -16.8651     8.3545    59.5251 </r>
       <r>   -16.6826     0.5735    60.1047 </r>
       <r>   -16.5000     0.0000    62.0000 </r>
       <r>   -16.3175     0.0000    62.0000 </r>
       <r>   -16.1349     0.0000    62.0000 </r>
       <r>   -15.9524     0.0000    62.0000 </r>
       <r>   -15.7698     0.0053    64.0010 </r>
       <r>   -15.5873     0.0000    66.0000 </r>
       <r>   -15.4047    10.9562    68.0000 </r>
       <r>   -15.2222     0.0002    68.0000 </r>
       <r>   -15.0396     0.0000    70.0000 </r>
       <r>   -14.8571    10.9562    72.0000 </r>
       <r>   -14.6746    12.7974    74.3361 </r>
       <r>   -14.4920     8.7489    77.5971 </r>
       <r>   -14.3095     0.0000    78.0000 </r>
       <r>   -14.1269     0.0004    78.0001 </r>
       <r>   -13.9444    18.5528    85.3867 </r>
       <r>   -13.7618     1.9224    88.3509 </r>
       <r>   -13.5793    10.9562    92.0000 </r>
       <r>   -13.3967     5.4927    93.0027 </r>
       <r>   -13.2142     0.0035    96.0006 </r>
       <r>   -13.0316     0.0000   100.0000 </r>
       <r>   -12.8491     9.9736   103.8206 </r>
       <r>   -12.6665    10.9490   105.9987 </r>
       <r>   -12.4840    10.9562   110.0000 </r>
       <r>   -12.3015     2.9722   112.5426 </r>
       <r>   -12.1189    10.9562   118.0000 </r>
       <r>   -11.9364    10.9562   120.0000 </r>
       <r>   -11.7538     0.0000   120.0000 </r>
       <r>   -11.5713     6.5615   121.1978 </r>
       <r>   -11.3887     0.0000   124.0000 </r>
       <r>   -11.2062    21.6011   127.9432 </r>
       <r>   -11.0236    16.2506   130.9665 </r>
       <r>   -10.8411     0.0000   132.0000 </r>
       <r>   -10.6585     7.1322   135.3020 </r>
       <r>   -10.4760     9.0148   137.6456 </r>
       <r>   -10.2935     0.0000   140.0000 </r>
       <r>   -10.1109     0.0000   140.0000 </r>
       <r>    -9.9284    10.9701   144.0025 </r>
       <r>    -9.7458     8.5680   147.5640 </r>
       <r>    -9.5633     0.0000   152.0000 </r>
       <r>    -9.3807     0.0000   152.0000 </r>
       <r>    -9.1982     0.0000   154.0000 </r>
       <r>    -9.0156     0.0000   156.0000 </r>
       <r>    -8.8331     0.0000   156.0000 </r>
       <r>    -8.6505     4.1623   156.7598 </r>
       <r>    -8.4680     0.0000   158.0000 </r>
       <r>    -8.2855    10.9562   160.0000 </r>
       <r>    -8.1029     0.0000   160.0000 </r>
       <r>    -7.9204     0.0000   160.0000 </r>
       <r>    -7.7378     0.0000   160.0000 </r>
       <r>    -7.5553     0.0000   160.0000 </r>
       <r>    -7.3727    10.9561   162.0000 </r>
       <r>    -7.1902    10.9562   164.0000 </r>
       <r>    -7.0076     0.0000   166.0000 </r>
       <r>    -6.8251     0.0000   166.0000 </r>
       <r>    -6.6425     0.0000   166.0000 </r>
       <r>    -6.4600     0.0000   166.0000 </r>
       <r>    -6.2775     0.0000   166.0000 </r>
       <r>    -6.0949     0.0000   166.0000 </r>
       <r>    -5.9124     0.0000   166.0000 </r>
       <r>    -5.7298     0.0000   166.0000 </r>
       <r>    -5.5473     0.0000   168.0000 </r>
       <r>    -5.3647     0.0000   168.0000 </r>
       <r>    -5.1822     0.0000   170.0000 </r>
       <r>    -4.9996     0.0000   170.0000 </r>
       <r>    -4.8171     0.0000   172.0000 </r>
       <r>    -4.6345     0.0000   172.0000 </r>
       <r>    -4.4520     0.0000   172.0000 </r>
       <r>    -4.2694     0.0000   174.0000 </r>
       <r>    -4.0869    10.9562   176.0000 </r>
       <r>    -3.9044    10.8033   179.9721 </r>
       <r>    -3.7218     0.0000   182.0000 </r>
       <r>    -3.5393     0.0000   182.0000 </r>
       <r>    -3.3567    10.9562   184.0000 </r>
       <r>    -3.1742     0.0002   186.0000 </r>
       <r>    -2.9916     0.0000   188.0000 </r>
       <r>    -2.8091     0.0000   190.0000 </r>
       <r>    -2.6265    10.9562   192.0000 </r>
       <r>    -2.4440     0.0000   192.0000 </r>
       <r>    -2.2614     0.0000   192.0000 </r>
       <r>    -2.0789     0.0000   192.0000 </r>
       <r>    -1.8964     0.0000   194.0000 </r>
       <r>    -1.7138    10.6395   195.9422 </r>
       <r>    -1.5313     0.0000   198.0000 </r>
       <r>    -1.3487     0.0000   200.0000 </r>
       <r>    -1.1662     0.0015   202.0003 </r>
       <r>    -0.9836    18.8535   207.4416 </r>
       <r>    -0.8011     0.0000   210.0000 </r>
       <r>    -0.6185    11.0051   214.0089 </r>
       <r>    -0.4360    10.3551   219.8903 </r>
       <r>    -0.2534    21.9071   225.9990 </r>
       <r>    -0.0709    10.9562   228.0000 </r>
       <r>     0.1116    11.8172   234.1572 </r>
       <r>     0.2942    21.9022   241.9982 </r>
       <r>     0.4767    21.4106   247.9084 </r>
       <r>     0.6593    10.1207   251.8475 </r>
       <r>     0.8418     0.0000   256.0000 </r>
       <r>     1.0244     0.0000   256.0000 </r>
       <r>     1.2069     0.0000   256.0000 </r>
       <r>     1.3895     0.0000   256.0000 </r>
       <r>     1.5720     0.0000   256.0000 </r>
       <r>     1.7546     0.0000   256.0000 </r>
       <r>     1.9371     0.0000   256.0000 </r>
       <r>     2.1196     0.0000   256.0000 </r>
       <r>     2.3022     0.0000   256.0000 </r>
       <r>     2.4847     0.0000   256.0000 </r>
       <r>     2.6673     0.0000   256.0000 </r>
       <r>     2.8498     0.0000   256.0000 </r>
       <r>     3.0324     0.0000   256.0000 </r>
       <r>     3.2149     0.0000   256.0000 </r>
      </set>
     </set>
    </array>
   </total>
  </dos>
 </calculation>
 <structure name="finalpos" >
  <crystal>
   <varray name="basis" >
    <v>      20.00000000       0.00000000       0.00000000 </v>
    <v>       0.00000000      20.00000000       0.00000000 </v>
    <v>       0.00000000       0.00000000      20.00000000 </v>
   </varray>
   <i name="volume">   8000.00000000 </i>
   <varray name="rec_basis" >
    <v>       0.05000000       0.00000000       0.00000000 </v>
    <v>       0.00000000       0.05000000       0.00000000 </v>
    <v>       0.00000000       0.00000000       0.05000000 </v>
   </varray>
  </crystal>
  <varray name="positions" >
   <v>       0.63096398       0.37761922       0.65422416 </v>
   <v>       0.43793752       0.56561110       0.32757008 </v>
   <v>       0.45581208       0.52423376       0.38051465 </v>
   <v>       0.47372925       0.61530131       0.44986522 </v>
   <v>       0.45595175       0.65963312       0.39935201 </v>
   <v>       0.43785737       0.63472201       0.33675972 </v>
   <v>       0.52307882       0.32955005       0.67474498 </v>
   <v>       0.49710163       0.37190466       0.62618823 </v>
   <v>       0.60227374       0.41933300       0.60593616 </v>
   <v>       0.29334713       0.47671938       0.56830116 </v>
   <v>       0.73964927       0.52855915       0.53463181 </v>
   <v>       0.70082162       0.56612858       0.49044049 </v>
   <v>       0.63257913       0.55363620       0.48652424 </v>
   <v>       0.63952130       0.46927713       0.56732841 </v>
   <v>       0.70843899       0.47974495       0.57314689 </v>
   <v>       0.59134754       0.33224398       0.68903016 </v>
   <v>       0.36211554       0.48866484       0.56417415 </v>
   <v>       0.40790931       0.62211625       0.69058213 </v>
   <v>       0.47619960       0.62606623       0.67660612 </v>
   <v>       0.50295190       0.58590820       0.62668073 </v>
   <v>       0.39825425       0.53800137       0.60426081 </v>
   <v>       0.36904589       0.57756069       0.65398228 </v>
   <v>       0.37289802       0.40579857       0.48223443 </v>
   <v>       0.30486503       0.39173492       0.48443166 </v>
   <v>       0.26422003       0.42785518       0.52821594 </v>
   <v>       0.48989745       0.29510618       0.70074864 </v>
   <v>       0.61334240       0.29968355       0.72673159 </v>
   <v>       0.68424189       0.38076917       0.66478776 </v>
   <v>       0.54225374       0.36233861       0.46129841 </v>
   <v>       0.31579090       0.57306911       0.66420366 </v>
   <v>       0.44416348       0.37118871       0.61364770 </v>
   <v>       0.42392665       0.66833230       0.29622671 </v>
   <v>       0.45642762       0.71313270       0.40950260 </v>
   <v>       0.48809132       0.63358802       0.49907234 </v>
   <v>       0.56912778       0.41808713       0.41480476 </v>
   <v>       0.73767440       0.44963919       0.60776512 </v>
   <v>       0.72277620       0.60481012       0.45904817 </v>
   <v>       0.45570253       0.47012894       0.37468790 </v>
   <v>       0.40614333       0.37888556       0.44852541 </v>
   <v>       0.28443799       0.35306162       0.45202062 </v>
   <v>       0.79326502       0.53703787       0.53892527 </v>
   <v>       0.55589708       0.58769132       0.61440612 </v>
   <v>       0.42412006       0.54328620       0.27986105 </v>
   <v>       0.50894741       0.65984570       0.70400156 </v>
   <v>       0.26265982       0.50568523       0.60265428 </v>
   <v>       0.21072272       0.41813760       0.53105039 </v>
   <v>       0.60090654       0.58197914       0.45254259 </v>
   <v>       0.38544357       0.65296704       0.72941133 </v>
   <v>       0.47424490       0.54794204       0.44140236 </v>
   <v>       0.40180479       0.45306079       0.52108436 </v>
   <v>       0.53520702       0.41608490       0.59173240 </v>
   <v>       0.46544808       0.54254992       0.59041194 </v>
   <v>       0.60138410       0.50650621       0.52397638 </v>
   <v>       0.53073984       0.40562607       0.44215451 </v>
   <v>       0.50088568       0.48087016       0.51934246 </v>
  </varray>
  <varray name="selective"  type="logical" >
   <v type="logical" >  T  T  T </v>
   <v type="logical" >  T  T  T </v>
   <v type="logical" >  T  T  T </v>
   <v type="logical" >  T  T  T </v>
   <v type="logical" >  T  T  T </v>
   <v type="logical" >  T  T  T </v>
   <v type="logical" >  T  T  T </v>
   <v type="logical" >  T  T  T </v>
   <v type="logical" >  T  T  T </v>
   <v type="logical" >  T  T  T </v>
   <v type="logical" >  T  T  T </v>
   <v type="logical" >  T  T  T </v>
   <v type="logical" >  T  T  T </v>
   <v type="logical" >  T  T  T </v>
   <v type="logical" >  T  T  T </v>
   <v type="logical" >  T  T  T </v>
   <v type="logical" >  T  T  T </v>
   <v type="logical" >  T  T  T </v>
   <v type="logical" >  T  T  T </v>
   <v type="logical" >  T  T  T </v>
   <v type="logical" >  T  T  T </v>
   <v type="logical" >  T  T  T </v>
   <v type="logical" >  T  T  T </v>
   <v type="logical" >  T  T  T </v>
   <v type="logical" >  T  T  T </v>
   <v type="logical" >  T  T  T </v>
   <v type="logical" >  T  T  T </v>
   <v type="logical" >  T  T  T </v>
   <v type="logical" >  T  T  T </v>
   <v type="logical" >  T  T  T </v>
   <v type="logical" >  T  T  T </v>
   <v type="logical" >  T  T  T </v>
   <v type="logical" >  T  T  T </v>
   <v type="logical" >  T  T  T </v>
   <v type="logical" >  T  T  T </v>
   <v type="logical" >  T  T  T </v>
   <v type="logical" >  T  T  T </v>
   <v type="logical" >  T  T  T </v>
   <v type="logical" >  T  T  T </v>
   <v type="logical" >  T  T  T </v>
   <v type="logical" >  T  T  T </v>
   <v type="logical" >  T  T  T </v>
   <v type="logical" >  T  T  T </v>
   <v type="logical" >  T  T  T </v>
   <v type="logical" >  T  T  T </v>
   <v type="logical" >  T  T  T </v>
   <v type="logical" >  T  T  T </v>
   <v type="logical" >  T  T  T </v>
   <v type="logical" >  T  T  T </v>
   <v type="logical" >  T  T  T </v>
   <v type="logical" >  T  T  T </v>
   <v type="logical" >  T  T  T </v>
   <v type="logical" >  T  T  T </v>
   <v type="logical" >  T  T  T </v>
   <v type="logical" >  T  T  T </v>
  </varray>
  <nose>
   <v>      -3.00000000       0.00000000       0.00010000       0.00010000 </v>
  </nose>
 </structure>
</modeling>
