  55  55   0   0
  0.1454545E+03  0.2000000E-08  0.2000000E-08  0.2000000E-08  0.5000000E-15
  1.000000000000000E-004
  CAR 
 c2_oh2_ruthenium_mol                    
      3.23861872    -51.53227168  301     -6.93963842      1.00000000
    -51.532  0.0000E+00  0.0000E+00  0.0000E+00  0.0000E+00
    -51.350  0.0000E+00  0.0000E+00  0.0000E+00  0.0000E+00
    -51.167  0.0000E+00  0.0000E+00  0.0000E+00  0.0000E+00
    -50.985  0.0000E+00  0.0000E+00  0.0000E+00  0.0000E+00
    -50.802  0.0000E+00  0.0000E+00  0.0000E+00  0.0000E+00
    -50.619  0.0000E+00  0.0000E+00  0.0000E+00  0.0000E+00
    -50.437  0.0000E+00  0.0000E+00  0.0000E+00  0.0000E+00
    -50.254  0.0000E+00  0.0000E+00  0.0000E+00  0.0000E+00
    -50.072  0.0000E+00  0.0000E+00  0.0000E+00  0.0000E+00
    -49.889  0.0000E+00  0.0000E+00  0.0000E+00  0.0000E+00
    -49.707  0.0000E+00  0.0000E+00  0.0000E+00  0.0000E+00
    -49.524  0.0000E+00  0.0000E+00  0.0000E+00  0.0000E+00
    -49.341  0.0000E+00  0.0000E+00  0.0000E+00  0.0000E+00
    -49.159  0.0000E+00  0.0000E+00  0.0000E+00  0.0000E+00
    -48.976  0.1095E+02  0.1095E+02  0.2000E+01  0.2000E+01
    -48.794  0.0000E+00  0.0000E+00  0.4000E+01  0.4000E+01
    -48.611  0.1095E+02  0.1095E+02  0.6000E+01  0.6000E+01
    -48.429  0.0000E+00  0.0000E+00  0.6000E+01  0.6000E+01
    -48.246  0.0000E+00  0.0000E+00  0.6000E+01  0.6000E+01
    -48.063  0.0000E+00  0.0000E+00  0.6000E+01  0.6000E+01
    -47.881  0.0000E+00  0.0000E+00  0.6000E+01  0.6000E+01
    -47.698  0.0000E+00  0.0000E+00  0.6000E+01  0.6000E+01
    -47.516  0.0000E+00  0.0000E+00  0.6000E+01  0.6000E+01
    -47.333  0.0000E+00  0.0000E+00  0.6000E+01  0.6000E+01
    -47.151  0.0000E+00  0.0000E+00  0.6000E+01  0.6000E+01
    -46.968  0.0000E+00  0.0000E+00  0.6000E+01  0.6000E+01
    -46.785  0.0000E+00  0.0000E+00  0.6000E+01  0.6000E+01
    -46.603  0.0000E+00  0.0000E+00  0.6000E+01  0.6000E+01
    -46.420  0.0000E+00  0.0000E+00  0.6000E+01  0.6000E+01
    -46.238  0.0000E+00  0.0000E+00  0.6000E+01  0.6000E+01
    -46.055  0.0000E+00  0.0000E+00  0.6000E+01  0.6000E+01
    -45.873  0.0000E+00  0.0000E+00  0.6000E+01  0.6000E+01
    -45.690  0.0000E+00  0.0000E+00  0.6000E+01  0.6000E+01
    -45.507  0.0000E+00  0.0000E+00  0.6000E+01  0.6000E+01
    -45.325  0.0000E+00  0.0000E+00  0.6000E+01  0.6000E+01
    -45.142  0.0000E+00  0.0000E+00  0.6000E+01  0.6000E+01
    -44.960  0.0000E+00  0.0000E+00  0.6000E+01  0.6000E+01
    -44.777  0.0000E+00  0.0000E+00  0.6000E+01  0.6000E+01
    -44.595  0.0000E+00  0.0000E+00  0.6000E+01  0.6000E+01
    -44.412  0.0000E+00  0.0000E+00  0.6000E+01  0.6000E+01
    -44.229  0.0000E+00  0.0000E+00  0.6000E+01  0.6000E+01
    -44.047  0.0000E+00  0.0000E+00  0.6000E+01  0.6000E+01
    -43.864  0.0000E+00  0.0000E+00  0.6000E+01  0.6000E+01
    -43.682  0.0000E+00  0.0000E+00  0.6000E+01  0.6000E+01
    -43.499  0.0000E+00  0.0000E+00  0.6000E+01  0.6000E+01
    -43.317  0.0000E+00  0.0000E+00  0.6000E+01  0.6000E+01
    -43.134  0.0000E+00  0.0000E+00  0.6000E+01  0.6000E+01
    -42.951  0.0000E+00  0.0000E+00  0.6000E+01  0.6000E+01
    -42.769  0.0000E+00  0.0000E+00  0.6000E+01  0.6000E+01
    -42.586  0.0000E+00  0.0000E+00  0.6000E+01  0.6000E+01
    -42.404  0.0000E+00  0.0000E+00  0.6000E+01  0.6000E+01
    -42.221  0.0000E+00  0.0000E+00  0.6000E+01  0.6000E+01
    -42.039  0.0000E+00  0.0000E+00  0.6000E+01  0.6000E+01
    -41.856  0.0000E+00  0.0000E+00  0.6000E+01  0.6000E+01
    -41.674  0.0000E+00  0.0000E+00  0.6000E+01  0.6000E+01
    -41.491  0.0000E+00  0.0000E+00  0.6000E+01  0.6000E+01
    -41.308  0.0000E+00  0.0000E+00  0.6000E+01  0.6000E+01
    -41.126  0.0000E+00  0.0000E+00  0.6000E+01  0.6000E+01
    -40.943  0.0000E+00  0.0000E+00  0.6000E+01  0.6000E+01
    -40.761  0.0000E+00  0.0000E+00  0.6000E+01  0.6000E+01
    -40.578  0.0000E+00  0.0000E+00  0.6000E+01  0.6000E+01
    -40.396  0.0000E+00  0.0000E+00  0.6000E+01  0.6000E+01
    -40.213  0.0000E+00  0.0000E+00  0.6000E+01  0.6000E+01
    -40.030  0.0000E+00  0.0000E+00  0.6000E+01  0.6000E+01
    -39.848  0.0000E+00  0.0000E+00  0.6000E+01  0.6000E+01
    -39.665  0.0000E+00  0.0000E+00  0.6000E+01  0.6000E+01
    -39.483  0.0000E+00  0.0000E+00  0.6000E+01  0.6000E+01
    -39.300  0.0000E+00  0.0000E+00  0.6000E+01  0.6000E+01
    -39.118  0.0000E+00  0.0000E+00  0.6000E+01  0.6000E+01
    -38.935  0.0000E+00  0.0000E+00  0.6000E+01  0.6000E+01
    -38.752  0.0000E+00  0.0000E+00  0.6000E+01  0.6000E+01
    -38.570  0.0000E+00  0.0000E+00  0.6000E+01  0.6000E+01
    -38.387  0.0000E+00  0.0000E+00  0.6000E+01  0.6000E+01
    -38.205  0.0000E+00  0.0000E+00  0.6000E+01  0.6000E+01
    -38.022  0.0000E+00  0.0000E+00  0.6000E+01  0.6000E+01
    -37.840  0.0000E+00  0.0000E+00  0.6000E+01  0.6000E+01
    -37.657  0.0000E+00  0.0000E+00  0.6000E+01  0.6000E+01
    -37.474  0.0000E+00  0.0000E+00  0.6000E+01  0.6000E+01
    -37.292  0.0000E+00  0.0000E+00  0.6000E+01  0.6000E+01
    -37.109  0.0000E+00  0.0000E+00  0.6000E+01  0.6000E+01
    -36.927  0.0000E+00  0.0000E+00  0.6000E+01  0.6000E+01
    -36.744  0.0000E+00  0.0000E+00  0.6000E+01  0.6000E+01
    -36.562  0.0000E+00  0.0000E+00  0.6000E+01  0.6000E+01
    -36.379  0.0000E+00  0.0000E+00  0.6000E+01  0.6000E+01
    -36.196  0.0000E+00  0.0000E+00  0.6000E+01  0.6000E+01
    -36.014  0.0000E+00  0.0000E+00  0.6000E+01  0.6000E+01
    -35.831  0.0000E+00  0.0000E+00  0.6000E+01  0.6000E+01
    -35.649  0.0000E+00  0.0000E+00  0.6000E+01  0.6000E+01
    -35.466  0.0000E+00  0.0000E+00  0.6000E+01  0.6000E+01
    -35.284  0.0000E+00  0.0000E+00  0.6000E+01  0.6000E+01
    -35.101  0.0000E+00  0.0000E+00  0.6000E+01  0.6000E+01
    -34.918  0.0000E+00  0.0000E+00  0.6000E+01  0.6000E+01
    -34.736  0.0000E+00  0.0000E+00  0.6000E+01  0.6000E+01
    -34.553  0.0000E+00  0.0000E+00  0.6000E+01  0.6000E+01
    -34.371  0.0000E+00  0.0000E+00  0.6000E+01  0.6000E+01
    -34.188  0.0000E+00  0.0000E+00  0.6000E+01  0.6000E+01
    -34.006  0.0000E+00  0.0000E+00  0.6000E+01  0.6000E+01
    -33.823  0.0000E+00  0.0000E+00  0.6000E+01  0.6000E+01
    -33.640  0.0000E+00  0.0000E+00  0.6000E+01  0.6000E+01
    -33.458  0.0000E+00  0.0000E+00  0.6000E+01  0.6000E+01
    -33.275  0.0000E+00  0.0000E+00  0.6000E+01  0.6000E+01
    -33.093  0.0000E+00  0.0000E+00  0.6000E+01  0.6000E+01
    -32.910  0.0000E+00  0.0000E+00  0.6000E+01  0.6000E+01
    -32.728  0.0000E+00  0.0000E+00  0.6000E+01  0.6000E+01
    -32.545  0.0000E+00  0.0000E+00  0.6000E+01  0.6000E+01
    -32.362  0.0000E+00  0.0000E+00  0.6000E+01  0.6000E+01
    -32.180  0.0000E+00  0.0000E+00  0.6000E+01  0.6000E+01
    -31.997  0.0000E+00  0.0000E+00  0.6000E+01  0.6000E+01
    -31.815  0.0000E+00  0.0000E+00  0.6000E+01  0.6000E+01
    -31.632  0.0000E+00  0.0000E+00  0.6000E+01  0.6000E+01
    -31.450  0.0000E+00  0.0000E+00  0.6000E+01  0.6000E+01
    -31.267  0.0000E+00  0.0000E+00  0.6000E+01  0.6000E+01
    -31.084  0.0000E+00  0.0000E+00  0.6000E+01  0.6000E+01
    -30.902  0.0000E+00  0.0000E+00  0.6000E+01  0.6000E+01
    -30.719  0.0000E+00  0.0000E+00  0.6000E+01  0.6000E+01
    -30.537  0.0000E+00  0.0000E+00  0.6000E+01  0.6000E+01
    -30.354  0.0000E+00  0.0000E+00  0.6000E+01  0.6000E+01
    -30.172  0.0000E+00  0.0000E+00  0.6000E+01  0.6000E+01
    -29.989  0.0000E+00  0.0000E+00  0.6000E+01  0.6000E+01
    -29.806  0.0000E+00  0.0000E+00  0.6000E+01  0.6000E+01
    -29.624  0.0000E+00  0.0000E+00  0.6000E+01  0.6000E+01
    -29.441  0.0000E+00  0.0000E+00  0.6000E+01  0.6000E+01
    -29.259  0.0000E+00  0.0000E+00  0.6000E+01  0.6000E+01
    -29.076  0.0000E+00  0.0000E+00  0.8000E+01  0.8000E+01
    -28.894  0.0000E+00  0.0000E+00  0.8000E+01  0.8000E+01
    -28.711  0.0000E+00  0.0000E+00  0.8000E+01  0.8000E+01
    -28.528  0.0000E+00  0.0000E+00  0.8000E+01  0.8000E+01
    -28.346  0.0000E+00  0.0000E+00  0.8000E+01  0.8000E+01
    -28.163  0.0000E+00  0.0000E+00  0.8000E+01  0.8000E+01
    -27.981  0.0000E+00  0.0000E+00  0.8000E+01  0.8000E+01
    -27.798  0.0000E+00  0.0000E+00  0.8000E+01  0.8000E+01
    -27.616  0.0000E+00  0.0000E+00  0.8000E+01  0.8000E+01
    -27.433  0.0000E+00  0.0000E+00  0.1000E+02  0.1000E+02
    -27.251  0.0000E+00  0.0000E+00  0.1000E+02  0.1000E+02
    -27.068  0.0000E+00  0.0000E+00  0.1000E+02  0.1000E+02
    -26.885  0.6657E-06  0.6657E-06  0.1000E+02  0.1000E+02
    -26.703  0.0000E+00  0.0000E+00  0.1200E+02  0.1200E+02
    -26.520  0.1095E+02  0.1095E+02  0.1400E+02  0.1400E+02
    -26.338  0.0000E+00  0.0000E+00  0.1400E+02  0.1400E+02
    -26.155  0.9805E-02  0.9805E-02  0.1400E+02  0.1400E+02
    -25.973  0.0000E+00  0.0000E+00  0.1800E+02  0.1800E+02
    -25.790  0.0000E+00  0.0000E+00  0.1800E+02  0.1800E+02
    -25.607  0.0000E+00  0.0000E+00  0.1800E+02  0.1800E+02
    -25.425  0.0000E+00  0.0000E+00  0.1800E+02  0.1800E+02
    -25.242  0.0000E+00  0.0000E+00  0.1800E+02  0.1800E+02
    -25.060  0.0000E+00  0.0000E+00  0.1800E+02  0.1800E+02
    -24.877  0.0000E+00  0.0000E+00  0.1800E+02  0.1800E+02
    -24.695  0.0000E+00  0.0000E+00  0.1800E+02  0.1800E+02
    -24.512  0.0000E+00  0.0000E+00  0.1800E+02  0.1800E+02
    -24.329  0.0000E+00  0.0000E+00  0.1800E+02  0.1800E+02
    -24.147  0.0000E+00  0.0000E+00  0.1800E+02  0.1800E+02
    -23.964  0.0000E+00  0.0000E+00  0.2000E+02  0.2000E+02
    -23.782  0.0000E+00  0.0000E+00  0.2000E+02  0.2000E+02
    -23.599  0.0000E+00  0.0000E+00  0.2000E+02  0.2000E+02
    -23.417  0.0000E+00  0.0000E+00  0.2000E+02  0.2000E+02
    -23.234  0.0000E+00  0.0000E+00  0.2000E+02  0.2000E+02
    -23.051  0.8237E-02  0.8237E-02  0.2000E+02  0.2000E+02
    -22.869  0.0000E+00  0.0000E+00  0.2200E+02  0.2200E+02
    -22.686  0.0000E+00  0.0000E+00  0.2200E+02  0.2200E+02
    -22.504  0.1095E+02  0.1095E+02  0.2400E+02  0.2400E+02
    -22.321  0.4190E-03  0.4190E-03  0.2600E+02  0.2600E+02
    -22.139  0.1095E+02  0.1095E+02  0.3000E+02  0.3000E+02
    -21.956  0.2605E+01  0.2605E+01  0.3048E+02  0.3048E+02
    -21.773  0.0000E+00  0.0000E+00  0.3200E+02  0.3200E+02
    -21.591  0.4332E-07  0.4332E-07  0.3200E+02  0.3200E+02
    -21.408  0.0000E+00  0.0000E+00  0.3400E+02  0.3400E+02
    -21.226  0.0000E+00  0.0000E+00  0.3400E+02  0.3400E+02
    -21.043  0.1288E-01  0.1288E-01  0.3400E+02  0.3400E+02
    -20.861  0.0000E+00  0.0000E+00  0.3600E+02  0.3600E+02
    -20.678  0.0000E+00  0.0000E+00  0.3800E+02  0.3800E+02
    -20.495  0.0000E+00  0.0000E+00  0.3800E+02  0.3800E+02
    -20.313  0.0000E+00  0.0000E+00  0.3800E+02  0.3800E+02
    -20.130  0.0000E+00  0.0000E+00  0.3800E+02  0.3800E+02
    -19.948  0.0000E+00  0.0000E+00  0.3800E+02  0.3800E+02
    -19.765  0.0000E+00  0.0000E+00  0.3800E+02  0.3800E+02
    -19.583  0.1095E+02  0.1095E+02  0.4000E+02  0.4000E+02
    -19.400  0.0000E+00  0.0000E+00  0.4000E+02  0.4000E+02
    -19.217  0.0000E+00  0.0000E+00  0.4200E+02  0.4200E+02
    -19.035  0.0000E+00  0.0000E+00  0.4200E+02  0.4200E+02
    -18.852  0.0000E+00  0.0000E+00  0.4200E+02  0.4200E+02
    -18.670  0.1095E+02  0.1095E+02  0.4400E+02  0.4400E+02
    -18.487  0.0000E+00  0.0000E+00  0.4400E+02  0.4400E+02
    -18.305  0.0000E+00  0.0000E+00  0.4600E+02  0.4600E+02
    -18.122  0.1095E+02  0.1095E+02  0.4800E+02  0.4800E+02
    -17.939  0.9360E-01  0.9360E-01  0.4802E+02  0.4802E+02
    -17.757  0.7142E+01  0.7142E+01  0.5130E+02  0.5130E+02
    -17.574  0.9165E+01  0.9165E+01  0.5367E+02  0.5367E+02
    -17.392  0.0000E+00  0.0000E+00  0.5600E+02  0.5600E+02
    -17.209  0.1095E+02  0.1095E+02  0.5800E+02  0.5800E+02
    -17.027  0.0000E+00  0.0000E+00  0.5800E+02  0.5800E+02
    -16.844  0.1070E+02  0.1070E+02  0.5995E+02  0.5995E+02
    -16.661  0.4361E-07  0.4360E-07  0.6000E+02  0.6000E+02
    -16.479  0.0000E+00  0.0000E+00  0.6200E+02  0.6200E+02
    -16.296  0.0000E+00  0.0000E+00  0.6200E+02  0.6200E+02
    -16.114  0.0000E+00  0.0000E+00  0.6200E+02  0.6200E+02
    -15.931  0.1183E-10  0.1183E-10  0.6200E+02  0.6200E+02
    -15.749  0.1095E+02  0.1095E+02  0.6600E+02  0.6600E+02
    -15.566  0.1095E+02  0.1095E+02  0.6800E+02  0.6800E+02
    -15.383  0.0000E+00  0.0000E+00  0.6800E+02  0.6800E+02
    -15.201  0.1284E+00  0.1284E+00  0.6802E+02  0.6802E+02
    -15.018  0.0000E+00  0.0000E+00  0.7000E+02  0.7000E+02
    -14.836  0.0000E+00  0.0000E+00  0.7000E+02  0.7000E+02
    -14.653  0.1093E+02  0.1093E+02  0.7600E+02  0.7600E+02
    -14.471  0.0000E+00  0.0000E+00  0.7600E+02  0.7600E+02
    -14.288  0.0000E+00  0.0000E+00  0.7800E+02  0.7800E+02
    -14.105  0.0000E+00  0.0000E+00  0.7800E+02  0.7800E+02
    -13.923  0.1093E+02  0.1093E+02  0.8399E+02  0.8399E+02
    -13.740  0.1095E+02  0.1095E+02  0.9000E+02  0.9000E+02
    -13.558  0.1095E+02  0.1095E+02  0.9200E+02  0.9200E+02
    -13.375  0.0000E+00  0.0000E+00  0.9400E+02  0.9400E+02
    -13.193  0.3333E+01  0.3333E+01  0.9661E+02  0.9661E+02
    -13.010  0.0000E+00  0.0000E+00  0.1000E+03  0.1000E+03
    -12.828  0.1095E+02  0.1095E+02  0.1040E+03  0.1040E+03
    -12.645  0.1131E+02  0.1131E+02  0.1061E+03  0.1061E+03
    -12.462  0.1095E+02  0.1095E+02  0.1100E+03  0.1100E+03
    -12.280  0.3457E+01  0.3457E+01  0.1126E+03  0.1126E+03
    -12.097  0.1095E+02  0.1095E+02  0.1180E+03  0.1180E+03
    -11.915  0.0000E+00  0.0000E+00  0.1200E+03  0.1200E+03
    -11.732  0.0000E+00  0.0000E+00  0.1200E+03  0.1200E+03
    -11.550  0.8711E+01  0.8711E+01  0.1216E+03  0.1216E+03
    -11.367  0.0000E+00  0.0000E+00  0.1240E+03  0.1240E+03
    -11.184  0.1256E+02  0.1256E+02  0.1263E+03  0.1263E+03
    -11.002  0.1095E+02  0.1095E+02  0.1320E+03  0.1320E+03
    -10.819  0.7887E-11  0.7887E-11  0.1320E+03  0.1320E+03
    -10.637  0.1095E+02  0.1095E+02  0.1360E+03  0.1360E+03
    -10.454  0.1095E+02  0.1095E+02  0.1380E+03  0.1380E+03
    -10.272  0.0000E+00  0.0000E+00  0.1400E+03  0.1400E+03
    -10.089  0.0000E+00  0.0000E+00  0.1400E+03  0.1400E+03
     -9.906  0.2386E+02  0.2386E+02  0.1444E+03  0.1444E+03
     -9.724  0.1131E+02  0.1131E+02  0.1481E+03  0.1481E+03
     -9.541  0.0000E+00  0.0000E+00  0.1520E+03  0.1520E+03
     -9.359  0.9280E-12  0.9280E-12  0.1520E+03  0.1520E+03
     -9.176  0.0000E+00  0.0000E+00  0.1540E+03  0.1540E+03
     -8.994  0.1095E+02  0.1095E+02  0.1560E+03  0.1560E+03
     -8.811  0.0000E+00  0.0000E+00  0.1560E+03  0.1560E+03
     -8.628  0.1037E+02  0.1037E+02  0.1579E+03  0.1579E+03
     -8.446  0.0000E+00  0.0000E+00  0.1580E+03  0.1580E+03
     -8.263  0.0000E+00  0.0000E+00  0.1600E+03  0.1600E+03
     -8.081  0.0000E+00  0.0000E+00  0.1600E+03  0.1600E+03
     -7.898  0.0000E+00  0.0000E+00  0.1600E+03  0.1600E+03
     -7.716  0.0000E+00  0.0000E+00  0.1600E+03  0.1600E+03
     -7.533  0.0000E+00  0.0000E+00  0.1600E+03  0.1600E+03
     -7.350  0.1095E+02  0.1095E+02  0.1620E+03  0.1620E+03
     -7.168  0.1095E+02  0.1095E+02  0.1640E+03  0.1640E+03
     -6.985  0.0000E+00  0.0000E+00  0.1660E+03  0.1660E+03
     -6.803  0.0000E+00  0.0000E+00  0.1660E+03  0.1660E+03
     -6.620  0.0000E+00  0.0000E+00  0.1660E+03  0.1660E+03
     -6.438  0.0000E+00  0.0000E+00  0.1660E+03  0.1660E+03
     -6.255  0.0000E+00  0.0000E+00  0.1660E+03  0.1660E+03
     -6.072  0.0000E+00  0.0000E+00  0.1660E+03  0.1660E+03
     -5.890  0.0000E+00  0.0000E+00  0.1660E+03  0.1660E+03
     -5.707  0.1095E+02  0.1095E+02  0.1680E+03  0.1680E+03
     -5.525  0.0000E+00  0.0000E+00  0.1680E+03  0.1680E+03
     -5.342  0.0000E+00  0.0000E+00  0.1680E+03  0.1680E+03
     -5.160  0.0000E+00  0.0000E+00  0.1680E+03  0.1680E+03
     -4.977  0.1095E+02  0.1095E+02  0.1700E+03  0.1700E+03
     -4.794  0.0000E+00  0.0000E+00  0.1720E+03  0.1720E+03
     -4.612  0.0000E+00  0.0000E+00  0.1720E+03  0.1720E+03
     -4.429  0.0000E+00  0.0000E+00  0.1720E+03  0.1720E+03
     -4.247  0.0000E+00  0.0000E+00  0.1740E+03  0.1740E+03
     -4.064  0.1100E+02  0.1100E+02  0.1760E+03  0.1760E+03
     -3.882  0.1095E+02  0.1095E+02  0.1800E+03  0.1800E+03
     -3.699  0.0000E+00  0.0000E+00  0.1820E+03  0.1820E+03
     -3.516  0.1095E+02  0.1095E+02  0.1840E+03  0.1840E+03
     -3.334  0.1095E+02  0.1095E+02  0.1860E+03  0.1860E+03
     -3.151  0.2466E+00  0.2466E+00  0.1860E+03  0.1860E+03
     -2.969  0.0000E+00  0.0000E+00  0.1880E+03  0.1880E+03
     -2.786  0.0000E+00  0.0000E+00  0.1900E+03  0.1900E+03
     -2.604  0.0000E+00  0.0000E+00  0.1920E+03  0.1920E+03
     -2.421  0.0000E+00  0.0000E+00  0.1920E+03  0.1920E+03
     -2.238  0.0000E+00  0.0000E+00  0.1920E+03  0.1920E+03
     -2.056  0.0000E+00  0.0000E+00  0.1920E+03  0.1920E+03
     -1.873  0.0000E+00  0.0000E+00  0.1940E+03  0.1940E+03
     -1.691  0.1076E+02  0.1076E+02  0.1960E+03  0.1960E+03
     -1.508  0.0000E+00  0.0000E+00  0.1980E+03  0.1980E+03
     -1.326  0.3523E+00  0.3523E+00  0.2001E+03  0.2001E+03
     -1.143  0.1094E+02  0.1094E+02  0.2040E+03  0.2040E+03
     -0.960  0.1096E+02  0.1096E+02  0.2080E+03  0.2080E+03
     -0.778  0.1095E+02  0.1095E+02  0.2120E+03  0.2120E+03
     -0.595  0.1406E+02  0.1406E+02  0.2146E+03  0.2146E+03
     -0.413  0.1525E+02  0.1525E+02  0.2208E+03  0.2208E+03
     -0.230  0.2080E+02  0.2080E+02  0.2258E+03  0.2258E+03
     -0.048  0.1095E+02  0.1095E+02  0.2300E+03  0.2300E+03
      0.135  0.1096E+02  0.1096E+02  0.2340E+03  0.2340E+03
      0.318  0.1887E+02  0.1887E+02  0.2414E+03  0.2414E+03
      0.500  0.2190E+02  0.2190E+02  0.2480E+03  0.2480E+03
      0.683  0.2149E+02  0.2149E+02  0.2539E+03  0.2539E+03
      0.865  0.0000E+00  0.0000E+00  0.2560E+03  0.2560E+03
      1.048  0.0000E+00  0.0000E+00  0.2560E+03  0.2560E+03
      1.230  0.0000E+00  0.0000E+00  0.2560E+03  0.2560E+03
      1.413  0.0000E+00  0.0000E+00  0.2560E+03  0.2560E+03
      1.595  0.0000E+00  0.0000E+00  0.2560E+03  0.2560E+03
      1.778  0.0000E+00  0.0000E+00  0.2560E+03  0.2560E+03
      1.961  0.0000E+00  0.0000E+00  0.2560E+03  0.2560E+03
      2.143  0.0000E+00  0.0000E+00  0.2560E+03  0.2560E+03
      2.326  0.0000E+00  0.0000E+00  0.2560E+03  0.2560E+03
      2.508  0.0000E+00  0.0000E+00  0.2560E+03  0.2560E+03
      2.691  0.0000E+00  0.0000E+00  0.2560E+03  0.2560E+03
      2.873  0.0000E+00  0.0000E+00  0.2560E+03  0.2560E+03
      3.056  0.0000E+00  0.0000E+00  0.2560E+03  0.2560E+03
      3.239  0.0000E+00  0.0000E+00  0.2560E+03  0.2560E+03
