   55   55    1    2
  0.1454545E+03  0.2000000E-08  0.2000000E-08  0.2000000E-08  0.5000000E-15
  1.000000000000000E-004
  CAR 
 c2_oh2_ruthenium_mol                    
    166      1    128
 
  0.0000000E+00  0.0000000E+00  0.0000000E+00  0.1000000E+01
    1      -49.042686    -49.042685
    2      -48.945181    -48.945180
    3      -48.674257    -48.674257
    4      -29.179643    -29.179643
    5      -27.528403    -27.528403
    6      -26.847957    -26.847957
    7      -26.575677    -26.575677
    8      -26.133010    -26.133009
    9      -26.082175    -26.082175
   10      -24.051675    -24.051675
   11      -23.028966    -23.028966
   12      -22.554340    -22.554340
   13      -22.402475    -22.402475
   14      -22.293163    -22.293163
   15      -22.171045    -22.171045
   16      -21.950947    -21.950947
   17      -21.550049    -21.550049
   18      -21.021633    -21.021633
   19      -20.768167    -20.768167
   20      -19.616537    -19.616537
   21      -19.337016    -19.337016
   22      -18.705789    -18.705789
   23      -18.420877    -18.420877
   24      -18.162501    -18.162501
   25      -17.922596    -17.922596
   26      -17.759651    -17.759651
   27      -17.581253    -17.581254
   28      -17.538794    -17.538794
   29      -17.277780    -17.277780
   30      -16.858086    -16.858086
   31      -16.620676    -16.620676
   32      -15.881528    -15.881528
   33      -15.772996    -15.772996
   34      -15.603779    -15.603779
   35      -15.184891    -15.184891
   36      -14.741070    -14.741070
   37      -14.735404    -14.735404
   38      -14.673234    -14.673234
   39      -14.371547    -14.371547
   40      -14.041949    -14.041949
   41      -14.005063    -14.005063
   42      -13.942630    -13.942630
   43      -13.892730    -13.892730
   44      -13.827257    -13.827257
   45      -13.763575    -13.763575
   46      -13.598949    -13.598949
   47      -13.517720    -13.517720
   48      -13.311453    -13.311453
   49      -13.189026    -13.189026
   50      -13.148049    -13.148049
   51      -12.927601    -12.927601
   52      -12.875779    -12.875779
   53      -12.693524    -12.693524
   54      -12.631850    -12.631850
   55      -12.539464    -12.539464
   56      -12.388990    -12.388990
   57      -12.276405    -12.276405
   58      -12.242866    -12.242866
   59      -12.171197    -12.171197
   60      -12.036467    -12.036467
   61      -11.555351    -11.555351
   62      -11.469153    -11.469153
   63      -11.253810    -11.253810
   64      -11.176943    -11.176943
   65      -11.119762    -11.119762
   66      -11.037634    -11.037634
   67      -10.769179    -10.769179
   68      -10.659621    -10.659621
   69      -10.480857    -10.480857
   70      -10.361200    -10.361200
   71       -9.971667     -9.971667
   72       -9.952624     -9.952624
   73       -9.899879     -9.899879
   74       -9.751444     -9.751444
   75       -9.710768     -9.710768
   76       -9.666607     -9.666607
   77       -9.306566     -9.306566
   78       -9.045904     -9.045904
   79       -8.639796     -8.639796
   80       -8.355870     -8.355870
   81       -7.385205     -7.385204
   82       -7.221162     -7.221162
   83       -7.111126     -7.111125
   84       -5.778281     -5.778281
   85       -5.034806     -5.034806
   86       -4.931452     -4.931452
   87       -4.335151     -4.335151
   88       -4.124995     -4.124995
   89       -4.045274     -4.045274
   90       -3.926735     -3.926735
   91       -3.846049     -3.846049
   92       -3.547829     -3.547829
   93       -3.381628     -3.381628
   94       -3.137145     -3.137145
   95       -2.907204     -2.907204
   96       -2.692133     -2.692133
   97       -1.973489     -1.973488
   98       -1.705693     -1.705693
   99       -1.612255     -1.612254
  100       -1.443462     -1.443462
  101       -1.312541     -1.312541
  102       -1.164777     -1.164776
  103       -1.078711     -1.078710
  104       -0.988668     -0.988668
  105       -0.933452     -0.933451
  106       -0.811295     -0.811294
  107       -0.646749     -0.646747
  108       -0.591300     -0.591300
  109       -0.511230     -0.511229
  110       -0.437421     -0.437420
  111       -0.410838     -0.410837
  112       -0.308788     -0.308786
  113       -0.239222     -0.239219
  114       -0.129759     -0.129756
  115       -0.088611     -0.088609
  116        0.031680      0.031682
  117        0.062751      0.062753
  118        0.159856      0.159858
  119        0.235361      0.235365
  120        0.262667      0.262668
  121        0.313324      0.313328
  122        0.409301      0.409306
  123        0.441746      0.441749
  124        0.476697      0.476702
  125        0.568582      0.568586
  126        0.658182      0.658185
  127        0.670116      0.670115
  128        0.748284      0.749033
