       N       E                     dE             d eps       ncg     rms          rms(c)
DAV:   1     0.908985297400E+03    0.90899E+03   -0.58814E+04   768   0.974E+02
DAV:   2    -0.684232435994E+02   -0.97741E+03   -0.97088E+03  1024   0.160E+02
DAV:   3    -0.393239338583E+03   -0.32482E+03   -0.32437E+03   832   0.846E+01
DAV:   4    -0.412057188990E+03   -0.18818E+02   -0.18795E+02   640   0.258E+01
DAV:   5    -0.412304189959E+03   -0.24700E+00   -0.24690E+00   896   0.314E+00    0.568E+01
DAV:   6    -0.392808812009E+03    0.19495E+02   -0.31886E+02   512   0.225E+01    0.379E+01
DAV:   7    -0.382723037557E+03    0.10086E+02   -0.23559E+01   704   0.196E+01    0.232E+01
DAV:   8    -0.378728254413E+03    0.39948E+01   -0.16354E+01   768   0.911E+00    0.906E+00
DAV:   9    -0.377685295349E+03    0.10430E+01   -0.68609E+00   768   0.500E+00    0.348E+00
DAV:  10    -0.377650309076E+03    0.34986E-01   -0.24461E-01   768   0.126E+00    0.252E+00
DAV:  11    -0.377510261273E+03    0.14005E+00   -0.16599E-01   768   0.966E-01    0.108E+00
DAV:  12    -0.377433347307E+03    0.76914E-01   -0.10788E-01   768   0.746E-01    0.701E-01
DAV:  13    -0.377417225091E+03    0.16122E-01   -0.20602E-02   768   0.400E-01    0.479E-01
DAV:  14    -0.377408477149E+03    0.87479E-02   -0.16760E-02   768   0.328E-01    0.263E-01
DAV:  15    -0.377410186292E+03   -0.17091E-02   -0.56794E-03   768   0.206E-01    0.229E-01
DAV:  16    -0.377421512363E+03   -0.11326E-01   -0.25156E-03   768   0.150E-01    0.977E-02
DAV:  17    -0.377427160109E+03   -0.56477E-02   -0.14460E-03   768   0.103E-01    0.751E-02
DAV:  18    -0.377432156969E+03   -0.49969E-02   -0.49476E-04   768   0.685E-02    0.576E-02
DAV:  19    -0.377435530024E+03   -0.33731E-02   -0.19460E-04   768   0.436E-02    0.334E-02
DAV:  20    -0.377437811706E+03   -0.22817E-02   -0.11304E-04   768   0.305E-02    0.218E-02
DAV:  21    -0.377439134925E+03   -0.13232E-02   -0.34097E-05   768   0.175E-02    0.143E-02
DAV:  22    -0.377440153793E+03   -0.10189E-02   -0.25368E-05   640   0.130E-02    0.104E-02
DAV:  23    -0.377440784143E+03   -0.63035E-03   -0.18305E-05   768   0.912E-03    0.735E-03
DAV:  24    -0.377441173029E+03   -0.38889E-03   -0.84886E-06   640   0.610E-03    0.308E-03
DAV:  25    -0.377441378454E+03   -0.20543E-03   -0.38682E-06   640   0.388E-03    0.204E-03
DAV:  26    -0.377441484428E+03   -0.10597E-03   -0.14241E-06   640   0.226E-03    0.145E-03
DAV:  27    -0.377441555180E+03   -0.70752E-04   -0.10467E-06   640   0.185E-03    0.101E-03
DAV:  28    -0.377441588889E+03   -0.33709E-04   -0.34055E-07   640   0.118E-03    0.624E-04
DAV:  29    -0.377441605286E+03   -0.16397E-04   -0.63365E-08   640   0.721E-04    0.392E-04
DAV:  30    -0.377441616232E+03   -0.10946E-04    0.19381E-09   640   0.578E-04    0.284E-04
DAV:  31    -0.377441623356E+03   -0.71238E-05    0.34417E-08   640   0.483E-04
   1 F= -.37744162E+03 E0= -.37744162E+03  d E =-.108383-129  mag=    -0.0000
