 vasp.5.3.5 31Mar14 (build Apr 08 2014 12:00:03) complex                        
  
 VASP binary ID code NSC-NSCPATCH-BUILD02 date 2017.03.15  18:38:23
 running on   64 total cores
 distrk:  each k-point on   64 cores,    1 groups
 distr:  one band on NCORES_PER_BAND=   1 cores,   64 groups


--------------------------------------------------------------------------------------------------------


 INCAR:
 POTCAR:    PAW_PBE C_h 06Feb2004                 
 POTCAR:    PAW_PBE C_h 06Feb2004                 
 POTCAR:    PAW_PBE H 15Jun2001                   
 POTCAR:    PAW_PBE N_h 06Feb2004                 
 POTCAR:    PAW_PBE O_h 06Feb2004                 
 POTCAR:    PAW_PBE Ru_pv 28Jan2005               

 ----------------------------------------------------------------------------- 
|                                                                             |
|           W    W    AA    RRRRR   N    N  II  N    N   GGGG   !!!           |
|           W    W   A  A   R    R  NN   N  II  NN   N  G    G  !!!           |
|           W    W  A    A  R    R  N N  N  II  N N  N  G       !!!           |
|           W WW W  AAAAAA  RRRRR   N  N N  II  N  N N  G  GGG   !            |
|           WW  WW  A    A  R   R   N   NN  II  N   NN  G    G                |
|           W    W  A    A  R    R  N    N  II  N    N   GGGG   !!!           |
|                                                                             |
|      For optimal performance we recommend to set                            |
|        NCORE= 4 - approx SQRT( number of cores)                             |
|      NCORE specifies how many cores store one orbital (NPAR=cpu/NCORE).     |
|      This setting can  greatly improve the performance of VASP for DFT.     |
|      The default, NPAR=number of cores might be grossly inefficient         |
|      on modern multi-core architectures or massively parallel machines.     |
|      Do your own testing !!!!                                               |
|      Unfortunately you need to use the default for GW and RPA calculations. |
|      (for HF NCORE is supported but not extensively tested yet)             |
|                                                                             |
 ----------------------------------------------------------------------------- 

 POTCAR:    PAW_PBE C_h 06Feb2004                 
   VRHFIN =C: s2p2                                                              
   LEXCH  = PE                                                                  
   EATOM  =   147.1560 eV,   10.8157 Ry                                         
                                                                                
   TITEL  = PAW_PBE C_h 06Feb2004                                               
   LULTRA =        F    use ultrasoft PP ?                                      
   IUNSCR =        1    unscreen: 0-lin 1-nonlin 2-no                           
   RPACOR =    0.800    partial core radius                                     
   POMASS =   12.011; ZVAL   =    4.000    mass and valenz                      
   RCORE  =    1.100    outmost cutoff radius                                   
   RWIGS  =    1.630; RWIGS  =    0.863    wigner-seitz radius (au A)           
   ENMAX  =  700.000; ENMIN  =  500.000 eV                                      
   ICORE  =        2    local potential                                         
   LCOR   =        T    correct aug charges                                     
   LPAW   =        T    paw PP                                                  
   EAUG   =  946.768                                                            
   DEXC   =    0.000                                                            
   RMAX   =    1.128    core radius for proj-oper                               
   RAUG   =    1.300    factor for augmentation sphere                          
   RDEP   =    1.162    radius for radial grids                                 
   RDEPT  =    1.088    core radius for aug-charge                              
                                                                                
   Atomic configuration                                                         
    4 entries                                                                   
     n  l   j            E        occ.                                          
     1  0  0.50      -273.3789   2.0000                                         
     2  0  0.50       -13.7508   2.0000                                         
     2  1  0.50        -5.2854   2.0000                                         
     3  2  1.50        -5.4423   0.0000                                         
   Description                                                                  
     l       E           TYP  RCUT    TYP  RCUT                                 
     0    -13.7508458     23  1.100                                             
     0     -8.2022199     23  1.100                                             
     1     -5.2854383     23  1.100                                             
     1      1.1560700     23  1.100                                             
     2     -5.4423304      7  1.100                                             
  local pseudopotential read in
  partial core-charges read in
  partial kinetic energy density read in
  atomic valenz-charges read in
  non local Contribution for L=           0  read in
    real space projection operators read in
  non local Contribution for L=           0  read in
    real space projection operators read in
  non local Contribution for L=           1  read in
    real space projection operators read in
  non local Contribution for L=           1  read in
    real space projection operators read in
    PAW grid and wavefunctions read in
 
   number of l-projection  operators is LMAX  =           4
   number of lm-projection operators is LMMAX =           8
 
 POTCAR:    PAW_PBE C_h 06Feb2004                 
   VRHFIN =C: s2p2                                                              
   LEXCH  = PE                                                                  
   EATOM  =   147.1560 eV,   10.8157 Ry                                         
                                                                                
   TITEL  = PAW_PBE C_h 06Feb2004                                               
   LULTRA =        F    use ultrasoft PP ?                                      
   IUNSCR =        1    unscreen: 0-lin 1-nonlin 2-no                           
   RPACOR =    0.800    partial core radius                                     
   POMASS =   12.011; ZVAL   =    4.000    mass and valenz                      
   RCORE  =    1.100    outmost cutoff radius                                   
   RWIGS  =    1.630; RWIGS  =    0.863    wigner-seitz radius (au A)           
   ENMAX  =  700.000; ENMIN  =  500.000 eV                                      
   ICORE  =        2    local potential                                         
   LCOR   =        T    correct aug charges                                     
   LPAW   =        T    paw PP                                                  
   EAUG   =  946.768                                                            
   DEXC   =    0.000                                                            
   RMAX   =    1.128    core radius for proj-oper                               
   RAUG   =    1.300    factor for augmentation sphere                          
   RDEP   =    1.162    radius for radial grids                                 
   RDEPT  =    1.088    core radius for aug-charge                              
                                                                                
   Atomic configuration                                                         
    4 entries                                                                   
     n  l   j            E        occ.                                          
     1  0  0.50      -273.3789   2.0000                                         
     2  0  0.50       -13.7508   2.0000                                         
     2  1  0.50        -5.2854   2.0000                                         
     3  2  1.50        -5.4423   0.0000                                         
   Description                                                                  
     l       E           TYP  RCUT    TYP  RCUT                                 
     0    -13.7508458     23  1.100                                             
     0     -8.2022199     23  1.100                                             
     1     -5.2854383     23  1.100                                             
     1      1.1560700     23  1.100                                             
     2     -5.4423304      7  1.100                                             
  local pseudopotential read in
  partial core-charges read in
  partial kinetic energy density read in
  atomic valenz-charges read in
  non local Contribution for L=           0  read in
    real space projection operators read in
  non local Contribution for L=           0  read in
    real space projection operators read in
  non local Contribution for L=           1  read in
    real space projection operators read in
  non local Contribution for L=           1  read in
    real space projection operators read in
    PAW grid and wavefunctions read in
 
   number of l-projection  operators is LMAX  =           4
   number of lm-projection operators is LMMAX =           8
 
 POTCAR:    PAW_PBE H 15Jun2001                   
   VRHFIN =H: ultrasoft test                                                    
   LEXCH  = PE                                                                  
   EATOM  =    12.4884 eV,    0.9179 Ry                                         
                                                                                
   TITEL  = PAW_PBE H 15Jun2001                                                 
   LULTRA =        F    use ultrasoft PP ?                                      
   IUNSCR =        0    unscreen: 0-lin 1-nonlin 2-no                           
   RPACOR =    0.000    partial core radius                                     
   POMASS =    1.000; ZVAL   =    1.000    mass and valenz                      
   RCORE  =    1.100    outmost cutoff radius                                   
   RWIGS  =    0.700; RWIGS  =    0.370    wigner-seitz radius (au A)           
   ENMAX  =  250.000; ENMIN  =  200.000 eV                                      
   RCLOC  =    0.701    cutoff for local pot                                    
   LCOR   =        T    correct aug charges                                     
   LPAW   =        T    paw PP                                                  
   EAUG   =  400.000                                                            
   RMAX   =    1.123    core radius for proj-oper                               
   RAUG   =    1.200    factor for augmentation sphere                          
   RDEP   =    1.112    radius for radial grids                                 
   RDEPT  =    0.926    core radius for aug-charge                              
                                                                                
   Atomic configuration                                                         
    2 entries                                                                   
     n  l   j            E        occ.                                          
     1  0  0.50        -6.4927   1.0000                                         
     2  1  0.50        -3.4015   0.0000                                         
   Description                                                                  
     l       E           TYP  RCUT    TYP  RCUT                                 
     0     -6.4927494     23  1.100                                             
     0      6.8029130     23  1.100                                             
     1     -4.0817478     23  1.100                                             
  local pseudopotential read in
  atomic valenz-charges read in
  non local Contribution for L=           0  read in
    real space projection operators read in
  non local Contribution for L=           0  read in
    real space projection operators read in
  non local Contribution for L=           1  read in
    real space projection operators read in
    PAW grid and wavefunctions read in
 
   number of l-projection  operators is LMAX  =           3
   number of lm-projection operators is LMMAX =           5
 
 POTCAR:    PAW_PBE N_h 06Feb2004                 
   VRHFIN =N: s2p3                                                              
   LEXCH  = PE                                                                  
   EATOM  =   264.5486 eV,   19.4438 Ry                                         
                                                                                
   TITEL  = PAW_PBE N_h 06Feb2004                                               
   LULTRA =        F    use ultrasoft PP ?                                      
   IUNSCR =        1    unscreen: 0-lin 1-nonlin 2-no                           
   RPACOR =    0.800    partial core radius                                     
   POMASS =   14.001; ZVAL   =    5.000    mass and valenz                      
   RCORE  =    1.100    outmost cutoff radius                                   
   RWIGS  =    1.480; RWIGS  =    0.783    wigner-seitz radius (au A)           
   ENMAX  =  700.000; ENMIN  =  500.000 eV                                      
   ICORE  =        2    local potential                                         
   LCOR   =        T    correct aug charges                                     
   LPAW   =        T    paw PP                                                  
   EAUG   =  904.640                                                            
   DEXC   =    0.000                                                            
   RMAX   =    1.127    core radius for proj-oper                               
   RAUG   =    1.300    factor for augmentation sphere                          
   RDEP   =    1.115    radius for radial grids                                 
   RDEPT  =    1.106    core radius for aug-charge                              
                                                                                
   Atomic configuration                                                         
    4 entries                                                                   
     n  l   j            E        occ.                                          
     1  0  0.50      -384.7179   2.0000                                         
     2  0  0.50       -18.5828   2.0000                                         
     2  1  0.50        -7.0898   3.0000                                         
     3  2  1.50        -6.8029   0.0000                                         
   Description                                                                  
     l       E           TYP  RCUT    TYP  RCUT                                 
     0    -18.5828117     23  1.100                                             
     0    -15.0750597     23  1.100                                             
     1     -7.0897851     23  1.100                                             
     1     -1.9663412     23  1.100                                             
     2     -6.8029130      7  1.100                                             
  local pseudopotential read in
  partial core-charges read in
  partial kinetic energy density read in
  kinetic energy density of atom read in
  atomic valenz-charges read in
  non local Contribution for L=           0  read in
    real space projection operators read in
  non local Contribution for L=           0  read in
    real space projection operators read in
  non local Contribution for L=           1  read in
    real space projection operators read in
  non local Contribution for L=           1  read in
    real space projection operators read in
    PAW grid and wavefunctions read in
 
   number of l-projection  operators is LMAX  =           4
   number of lm-projection operators is LMMAX =           8
 
 POTCAR:    PAW_PBE O_h 06Feb2004                 
   VRHFIN =O: s2p4                                                              
   LEXCH  = PE                                                                  
   EATOM  =   432.3788 eV,   31.7789 Ry                                         
                                                                                
   TITEL  = PAW_PBE O_h 06Feb2004                                               
   LULTRA =        F    use ultrasoft PP ?                                      
   IUNSCR =        1    unscreen: 0-lin 1-nonlin 2-no                           
   RPACOR =    0.800    partial core radius                                     
   POMASS =   16.000; ZVAL   =    6.000    mass and valenz                      
   RCORE  =    1.100    outmost cutoff radius                                   
   RWIGS  =    1.400; RWIGS  =    0.741    wigner-seitz radius (au A)           
   ENMAX  =  700.000; ENMIN  =  500.000 eV                                      
   ICORE  =        2    local potential                                         
   LCOR   =        T    correct aug charges                                     
   LPAW   =        T    paw PP                                                  
   EAUG   =  888.804                                                            
   DEXC   =    0.000                                                            
   RMAX   =    1.128    core radius for proj-oper                               
   RAUG   =    1.300    factor for augmentation sphere                          
   RDEP   =    1.125    radius for radial grids                                 
   RDEPT  =    1.088    core radius for aug-charge                              
                                                                                
   Atomic configuration                                                         
    4 entries                                                                   
     n  l   j            E        occ.                                          
     1  0  0.50      -514.6923   2.0000                                         
     2  0  0.50       -23.9615   2.0000                                         
     2  1  0.50        -9.0305   4.0000                                         
     3  2  1.50        -9.5241   0.0000                                         
   Description                                                                  
     l       E           TYP  RCUT    TYP  RCUT                                 
     0    -23.9615319     23  1.100                                             
     0    -25.3221145     23  1.100                                             
     1     -9.0304911     23  1.100                                             
     1     -5.4802209     23  1.100                                             
     2     -9.5240782      7  1.100                                             
  local pseudopotential read in
  partial core-charges read in
  partial kinetic energy density read in
  atomic valenz-charges read in
  non local Contribution for L=           0  read in
    real space projection operators read in
  non local Contribution for L=           0  read in
    real space projection operators read in
  non local Contribution for L=           1  read in
    real space projection operators read in
  non local Contribution for L=           1  read in
    real space projection operators read in
    PAW grid and wavefunctions read in
 
   number of l-projection  operators is LMAX  =           4
   number of lm-projection operators is LMMAX =           8
 
 POTCAR:    PAW_PBE Ru_pv 28Jan2005               
   VRHFIN =Ru: 4p5s4d                                                           
   LEXCH  = PE                                                                  
   EATOM  =  1873.4746 eV,  137.6965 Ry                                         
                                                                                
   TITEL  = PAW_PBE Ru_pv 28Jan2005                                             
   LULTRA =        F    use ultrasoft PP ?                                      
   IUNSCR =        1    unscreen: 0-lin 1-nonlin 2-no                           
   RPACOR =    2.170    partial core radius                                     
   POMASS =  101.070; ZVAL   =   14.000    mass and valenz                      
   RCORE  =    2.500    outmost cutoff radius                                   
   RWIGS  =    2.650; RWIGS  =    1.402    wigner-seitz radius (au A)           
   ENMAX  =  240.049; ENMIN  =  180.037 eV                                      
   ICORE  =        3    local potential                                         
   LCOR   =        T    correct aug charges                                     
   LPAW   =        T    paw PP                                                  
   EAUG   =  430.792                                                            
   DEXC   =    0.000                                                            
   RMAX   =    2.546    core radius for proj-oper                               
   RAUG   =    1.300    factor for augmentation sphere                          
   RDEP   =    2.520    radius for radial grids                                 
   RDEPT  =    2.044    core radius for aug-charge                              
                                                                                
   Atomic configuration                                                         
   11 entries                                                                   
     n  l   j            E        occ.                                          
     1  0  0.50    -21933.2692   2.0000                                         
     2  0  0.50     -3153.4096   2.0000                                         
     2  1  1.50     -2823.9548   6.0000                                         
     3  0  0.50      -555.3322   2.0000                                         
     3  1  1.50      -447.1024   6.0000                                         
     3  2  2.50      -273.0570  10.0000                                         
     4  0  0.50       -76.3589   2.0000                                         
     4  1  1.50       -46.4050   6.0000                                         
     4  2  2.50        -5.2029   7.0000                                         
     5  0  0.50        -4.2392   1.0000                                         
     4  3  2.50        -1.3606   0.0000                                         
   Description                                                                  
     l       E           TYP  RCUT    TYP  RCUT                                 
     1    -46.4050190     23  2.100                                             
     1      4.0817478     23  2.100                                             
     2     -5.2028758     23  2.500                                             
     2     -6.5634584     23  2.500                                             
     0     -4.2392192     23  2.500                                             
     0      7.0918828     23  2.500                                             
     3     -5.4423304     23  2.500                                             
  local pseudopotential read in
  partial core-charges read in
  partial kinetic energy density read in
  atomic valenz-charges read in
  non local Contribution for L=           1  read in
    real space projection operators read in
  non local Contribution for L=           1  read in
    real space projection operators read in
  non local Contribution for L=           2  read in
    real space projection operators read in
  non local Contribution for L=           2  read in
    real space projection operators read in
  non local Contribution for L=           0  read in
    real space projection operators read in
  non local Contribution for L=           0  read in
    real space projection operators read in
    PAW grid and wavefunctions read in
 
   number of l-projection  operators is LMAX  =           6
   number of lm-projection operators is LMMAX =          18
 
 Optimization of the real space projectors (new method)

 maximal supplied QI-value         = 34.20
 optimisation between [QCUT,QGAM] = [ 13.34, 27.02] = [ 49.83,204.46] Ry 
 Optimized for a Real-space Cutoff    1.04 Angstroem

   l    n(q)    QCUT    max X(q) W(low)/X(q) W(high)/X(q)  e(spline) 
   0      8    13.340   134.812    0.72E-04    0.21E-03    0.27E-06
   0      8    13.340    80.524    0.70E-04    0.21E-03    0.27E-06
   1      8    13.340    79.026    0.21E-03    0.16E-03    0.33E-06
   1      8    13.340    45.188    0.20E-03    0.15E-03    0.33E-06
 Optimization of the real space projectors (new method)

 maximal supplied QI-value         = 34.20
 optimisation between [QCUT,QGAM] = [ 13.34, 27.02] = [ 49.83,204.46] Ry 
 Optimized for a Real-space Cutoff    1.04 Angstroem

   l    n(q)    QCUT    max X(q) W(low)/X(q) W(high)/X(q)  e(spline) 
   0      8    13.340   134.812    0.72E-04    0.21E-03    0.27E-06
   0      8    13.340    80.524    0.70E-04    0.21E-03    0.27E-06
   1      8    13.340    79.026    0.21E-03    0.16E-03    0.33E-06
   1      8    13.340    45.188    0.20E-03    0.15E-03    0.33E-06
 Optimization of the real space projectors (new method)

 maximal supplied QI-value         = 34.20
 optimisation between [QCUT,QGAM] = [ 13.34, 27.02] = [ 49.83,204.46] Ry 
 Optimized for a Real-space Cutoff    0.98 Angstroem

   l    n(q)    QCUT    max X(q) W(low)/X(q) W(high)/X(q)  e(spline) 
   0      8    13.340    19.460    0.18E-03    0.41E-04    0.19E-06
   0      8    13.340    12.209    0.17E-03    0.45E-04    0.18E-06
   1      7    13.340     4.655    0.16E-03    0.30E-03    0.14E-06
 Optimization of the real space projectors (new method)

 maximal supplied QI-value         = 34.20
 optimisation between [QCUT,QGAM] = [ 13.34, 27.02] = [ 49.83,204.46] Ry 
 Optimized for a Real-space Cutoff    1.04 Angstroem

   l    n(q)    QCUT    max X(q) W(low)/X(q) W(high)/X(q)  e(spline) 
   0      8    13.340   148.539    0.85E-04    0.19E-03    0.21E-06
   0      8    13.340   106.192    0.84E-04    0.19E-03    0.21E-06
   1      8    13.340    73.877    0.18E-03    0.11E-03    0.36E-06
   1      8    13.340    50.042    0.17E-03    0.11E-03    0.36E-06
 Optimization of the real space projectors (new method)

 maximal supplied QI-value         = 34.20
 optimisation between [QCUT,QGAM] = [ 13.34, 27.02] = [ 49.83,204.46] Ry 
 Optimized for a Real-space Cutoff    0.98 Angstroem

   l    n(q)    QCUT    max X(q) W(low)/X(q) W(high)/X(q)  e(spline) 
   0      8    13.340   280.207    0.16E-03    0.35E-03    0.14E-06
   0      8    13.340   228.978    0.16E-03    0.35E-03    0.14E-06
   1      7    13.340    86.127    0.23E-03    0.25E-04    0.30E-06
   1      7    13.340    65.368    0.22E-03    0.27E-04    0.30E-06
 Optimization of the real space projectors (new method)

 maximal supplied QI-value         = 15.12
 optimisation between [QCUT,QGAM] = [ 13.45, 27.06] = [ 50.69,205.06] Ry 
 Optimized for a Real-space Cutoff    1.40 Angstroem

   l    n(q)    QCUT    max X(q) W(low)/X(q) W(high)/X(q)  e(spline) 
   1     11    13.455     3.180    0.18E-04    0.25E-04    0.55E-07
   1     11    13.455     5.351    0.12E-03    0.15E-03    0.24E-06
   2     10    13.455    66.565    0.13E-03    0.46E-04    0.26E-06
   2     10    13.455    63.466    0.13E-03    0.47E-04    0.27E-06
   0     11    13.455    85.644    0.47E-04    0.16E-04    0.33E-06
   0     11    13.455    44.119    0.43E-04    0.15E-04    0.30E-06
  PAW_PBE C_h 06Feb2004                 :
 energy of atom  1       EATOM= -147.1560
 kinetic energy error for atom=    0.0286 (will be added to EATOM!!)
  PAW_PBE C_h 06Feb2004                 :
 energy of atom  2       EATOM= -147.1560
 kinetic energy error for atom=    0.0286 (will be added to EATOM!!)
  PAW_PBE H 15Jun2001                   :
 energy of atom  3       EATOM=  -12.4884
 kinetic energy error for atom=    0.0002 (will be added to EATOM!!)
  PAW_PBE N_h 06Feb2004                 :
 energy of atom  4       EATOM= -264.5486
 kinetic energy error for atom=    0.0847 (will be added to EATOM!!)
  PAW_PBE O_h 06Feb2004                 :
 energy of atom  5       EATOM= -432.3788
 kinetic energy error for atom=    0.1855 (will be added to EATOM!!)
  PAW_PBE Ru_pv 28Jan2005               :
 energy of atom  6       EATOM=-1873.4746
 kinetic energy error for atom=    0.0017 (will be added to EATOM!!)
 
 
 POSCAR: C C H N O Ru                            
  positions in direct lattice
  velocities in cartesian coordinates
 exchange correlation table for  LEXCH =        8
   RHO(1)=    0.500       N(1)  =     2000
   RHO(2)=  100.500       N(2)  =     4000
 


--------------------------------------------------------------------------------------------------------


 ion  position               nearest neighbor table
   1  0.523  0.330  0.675-  26 1.09   8 1.39  16 1.40
   2  0.438  0.566  0.328-  43 1.09   3 1.39   6 1.39
   3  0.456  0.524  0.381-  38 1.09  49 1.36   2 1.39
   4  0.474  0.615  0.450-  34 1.09  49 1.36   5 1.39
   5  0.456  0.660  0.399-  33 1.09   4 1.39   6 1.40
   6  0.438  0.635  0.337-  32 1.09   2 1.39   5 1.40
   7  0.293  0.477  0.568-  45 1.09  25 1.39  17 1.40
   8  0.497  0.372  0.626-  31 1.09  51 1.36   1 1.39
   9  0.602  0.419  0.606-  51 1.37  10 1.40  14 1.47
  10  0.631  0.378  0.654-  28 1.09  16 1.39   9 1.40
  11  0.740  0.529  0.535-  41 1.09  15 1.39  12 1.40
  12  0.701  0.566  0.490-  37 1.09  13 1.39  11 1.40
  13  0.633  0.554  0.487-  47 1.09  53 1.36  12 1.39
  14  0.640  0.469  0.567-  53 1.37  15 1.40   9 1.47
  15  0.708  0.480  0.573-  36 1.09  11 1.39  14 1.40
  16  0.591  0.332  0.689-  27 1.09  10 1.39   1 1.40
  17  0.362  0.489  0.564-  50 1.37   7 1.40  21 1.46
  18  0.408  0.622  0.691-  48 1.09  22 1.39  19 1.40
  19  0.476  0.626  0.677-  44 1.09  20 1.39  18 1.40
  20  0.503  0.586  0.627-  42 1.09  52 1.36  19 1.39
  21  0.398  0.538  0.604-  52 1.38  22 1.40  17 1.46
  22  0.369  0.578  0.654-  30 1.09  18 1.39  21 1.40
  23  0.373  0.406  0.482-  39 1.09  50 1.35  24 1.39
  24  0.305  0.392  0.484-  40 1.09  23 1.39  25 1.40
  25  0.264  0.428  0.528-  46 1.09   7 1.39  24 1.40
  26  0.490  0.295  0.701-   1 1.09
  27  0.613  0.300  0.727-  16 1.09
  28  0.684  0.381  0.665-  10 1.09
  29  0.542  0.362  0.461-  54 0.97
  30  0.316  0.573  0.664-  22 1.09
  31  0.444  0.371  0.614-   8 1.09
  32  0.424  0.668  0.296-   6 1.09
  33  0.456  0.713  0.410-   5 1.09
  34  0.488  0.634  0.499-   4 1.09
  35  0.569  0.418  0.415-  54 0.98
  36  0.738  0.450  0.608-  15 1.09
  37  0.723  0.605  0.459-  12 1.09
  38  0.456  0.470  0.375-   3 1.09
  39  0.406  0.379  0.449-  23 1.09
  40  0.284  0.353  0.452-  24 1.09
  41  0.793  0.537  0.539-  11 1.09
  42  0.556  0.588  0.614-  20 1.09
  43  0.424  0.543  0.280-   2 1.09
  44  0.509  0.660  0.704-  19 1.09
  45  0.263  0.506  0.603-   7 1.09
  46  0.211  0.418  0.531-  25 1.09
  47  0.601  0.582  0.453-  13 1.09
  48  0.385  0.653  0.729-  18 1.09
  49  0.474  0.548  0.441-   4 1.36   3 1.36  55 2.12
  50  0.402  0.453  0.521-  23 1.35  17 1.37  55 2.06
  51  0.535  0.416  0.592-   8 1.36   9 1.37  55 2.06
  52  0.465  0.543  0.590-  20 1.36  21 1.38  55 2.01
  53  0.601  0.507  0.524-  13 1.36  14 1.37  55 2.08
  54  0.531  0.406  0.442-  29 0.97  35 0.98  55 2.24
  55  0.501  0.481  0.519-  52 2.01  50 2.06  51 2.06  53 2.08  49 2.12  54 2.24
 
  LATTYP: Found a simple cubic cell.
 ALAT       =    20.0000000000
  
  Lattice vectors:
  
 A1 = (  20.0000000000,   0.0000000000,   0.0000000000)
 A2 = (   0.0000000000,  20.0000000000,   0.0000000000)
 A3 = (   0.0000000000,   0.0000000000,  20.0000000000)


Analysis of symmetry for initial positions (statically):
=====================================================================
 Subroutine PRICEL returns:
 Original cell was already a primitive cell.
 

 Routine SETGRP: Setting up the symmetry group for a 
 simple cubic supercell.


 Subroutine GETGRP returns: Found  1 space group operations
 (whereof  1 operations were pure point group operations)
 out of a pool of 48 trial point group operations.


The static configuration has the point symmetry C_1 .


Analysis of symmetry for dynamics (positions and initial velocities):
=====================================================================
 Subroutine PRICEL returns:
 Original cell was already a primitive cell.
 

 Routine SETGRP: Setting up the symmetry group for a 
 simple cubic supercell.


 Subroutine GETGRP returns: Found  1 space group operations
 (whereof  1 operations were pure point group operations)
 out of a pool of 48 trial point group operations.


The dynamic configuration has the point symmetry C_1 .


Analysis of constrained symmetry for selective dynamics:
=====================================================================
 Subroutine PRICEL returns:
 Original cell was already a primitive cell.
 

 Routine SETGRP: Setting up the symmetry group for a 
 simple cubic supercell.


 Subroutine GETGRP returns: Found  1 space group operations
 (whereof  1 operations were pure point group operations)
 out of a pool of 48 trial point group operations.


The constrained configuration has the point symmetry C_1 .


Analysis of magnetic symmetry:
=====================================================================
 Subroutine PRICEL returns:
 Original cell was already a primitive cell.
 

 Subroutine MAGSYM returns: Found  1 space group operations
 (whereof  1 operations were pure point group operations)
 out of a pool of  1 trial space group operations
 (whereof  1 operations were pure point group operations)
 and found also     1 'primitive' translations


The magnetic configuration has the point symmetry C_1 .
 
 
 KPOINTS: K-Points                                

Automatic generation of k-mesh.
Space group operators:
 irot       det(A)        alpha          n_x          n_y          n_z        tau_x        tau_y        tau_z
    1     1.000000     0.000000     1.000000     0.000000     0.000000     0.000000     0.000000     0.000000
 
 Subroutine IBZKPT returns following result:
 ===========================================
 
 Found      1 irreducible k-points:
 
 Following reciprocal coordinates:
            Coordinates               Weight
  0.000000  0.000000  0.000000      1.000000
 
 Following cartesian coordinates:
            Coordinates               Weight
  0.000000  0.000000  0.000000      1.000000
 


--------------------------------------------------------------------------------------------------------




 Dimension of arrays:
   k-points           NKPTS =      1   k-points in BZ     NKDIM =      1   number of bands    NBANDS=    128
   number of dos      NEDOS =    301   number of ions     NIONS =     55
   non local maximal  LDIM  =      6   non local SUM 2l+1 LMDIM =     18
   total plane-waves  NPLWV = ******
   max r-space proj   IRMAX =   8473   max aug-charges    IRDMAX= 268848
   dimension x,y,z NGX =   180 NGY =  180 NGZ =  180
   dimension x,y,z NGXF=   360 NGYF=  360 NGZF=  360
   support grid    NGXF=   720 NGYF=  720 NGZF=  720
   ions per type =               1  24  23   5   1   1
 NGX,Y,Z   is equivalent  to a cutoff of  14.96, 14.96, 14.96 a.u.
 NGXF,Y,Z  is equivalent  to a cutoff of  29.92, 29.92, 29.92 a.u.


 I would recommend the setting:
   dimension x,y,z NGX =   173 NGY =  173 NGZ =  173
 SYSTEM =  c2_oh2_ruthenium_mol                    
 POSCAR =  C C H N O Ru                            

 Startparameter for this run:
   NWRITE =      2    write-flag & timer
   PREC   = accura    normal or accurate (medium, high low for compatibility)
   ISTART =      0    job   : 0-new  1-cont  2-samecut
   ICHARG =      2    charge: 1-file 2-atom 10-const
   ISPIN  =      2    spin polarized calculation?
   LNONCOLLINEAR =      F non collinear calculations
   LSORBIT =      F    spin-orbit coupling
   INIWAV =      1    electr: 0-lowe 1-rand  2-diag
   LASPH  =      F    aspherical Exc in radial PAW
   METAGGA=      F    non-selfconsistent MetaGGA calc.

 Electronic Relaxation 1
   ENCUT  =  700.0 eV  51.45 Ry    7.17 a.u.  43.15 43.15 43.15*2*pi/ulx,y,z
   ENINI  =  700.0     initial cutoff
   ENAUG  =  946.8 eV  augmentation charge cutoff
   NELM   =     60;   NELMIN=  2; NELMDL= -5     # of ELM steps 
   EDIFF  = 0.1E-04   stopping-criterion for ELM
   LREAL  =      T    real-space projection
   NLSPLINE    = F    spline interpolate recip. space projectors
   LCOMPAT=      F    compatible to vasp.4.4
   GGA_COMPAT  = T    GGA compatible to vasp.4.4-vasp.4.6
   LMAXPAW     = -100 max onsite density
   LMAXMIX     =    2 max onsite mixed and CHGCAR
   VOSKOWN=      0    Vosko Wilk Nusair interpolation
   ROPT   =   -0.00025  -0.00025  -0.00025  -0.00025
   ROPT   =   -0.00025  -0.00025
 Ionic relaxation
   EDIFFG = -.1E-01   stopping-criterion for IOM
   NSW    =      0    number of steps for IOM
   NBLOCK =      1;   KBLOCK =      1    inner block; outer block 
   IBRION =     -1    ionic relax: 0-MD 1-quasi-New 2-CG
   NFREE  =      0    steps in history (QN), initial steepest desc. (CG)
   ISIF   =      2    stress and relaxation
   IWAVPR =     10    prediction:  0-non 1-charg 2-wave 3-comb
   ISYM   =      2    0-nonsym 1-usesym 2-fastsym
   LCORR  =      T    Harris-Foulkes like correction to forces

   POTIM  = 0.5000    time-step for ionic-motion
   TEIN   =    0.0    initial temperature
   TEBEG  =    0.0;   TEEND  =   0.0 temperature during run
   SMASS  =  -3.00    Nose mass-parameter (am)
   estimated Nose-frequenzy (Omega)   =  0.10E-29 period in steps =****** mass=  -0.914E-26a.u.
   SCALEE = 1.0000    scale energy and forces
   NPACO  =    256;   APACO  = 16.0  distance and # of slots for P.C.
   PSTRESS=    0.0 pullay stress

  Mass of Ions in am
   POMASS =  12.01 12.01  1.00 14.00 16.00101.07
  Ionic Valenz
   ZVAL   =   4.50  4.00  1.00  5.00  6.00 14.00
  Atomic Wigner-Seitz radii
   RWIGS  =  -1.00 -1.00 -1.00 -1.00 -1.00 -1.00
  virtual crystal weights 
   VCA    =   1.00  1.00  1.00  1.00  1.00  1.00
   NELECT =     166.0000    total number of electrons
   NUPDOWN=       0.0000    fix difference up-down

 DOS related values:
   EMIN   =  10.00;   EMAX   =-10.00  energy-range for DOS
   EFERMI =   0.00
   ISMEAR =     0;   SIGMA  =   0.01  broadening in eV -4-tet -1-fermi 0-gaus

 Electronic relaxation 2 (details)
   IALGO  =     38    algorithm
   LDIAG  =      T    sub-space diagonalisation (order eigenvalues)
   LSUBROT=      F    optimize rotation matrix (better conditioning)
   TURBO    =      0    0=normal 1=particle mesh
   IRESTART =      0    0=no restart 2=restart with 2 vectors
   NREBOOT  =      0    no. of reboots
   NMIN     =      0    reboot dimension
   EREF     =   0.00    reference energy to select bands
   IMIX   =      4    mixing-type and parameters
     AMIX     =   0.40;   BMIX     =  2.00
     AMIX_MAG =   1.60;   BMIX_MAG =  2.00
     AMIN     =   0.10
     WC   =   100.;   INIMIX=   1;  MIXPRE=   1;  MAXMIX= -45

 Intra band minimization:
   WEIMIN = 0.0000     energy-eigenvalue tresh-hold
   EBREAK =  0.20E-07  absolut break condition
   DEPER  =   0.30     relativ break condition  

   TIME   =   0.05     timestep for ELM

  volume/ion in A,a.u.               =     145.45       981.58
  Fermi-wavevector in a.u.,A,eV,Ry     =   0.449864  0.850119  2.753510  0.202377
  Thomas-Fermi vector in A             =   1.430192
 
 Write flags
   LWAVE  =      T    write WAVECAR
   LCHARG =      T    write CHGCAR
   LVTOT  =      F    write LOCPOT, total local potential
   LVHAR  =      F    write LOCPOT, Hartree potential only
   LELF   =      F    write electronic localiz. function (ELF)
   LORBIT =      0    0 simple, 1 ext, 2 COOP (PROOUT)


 Dipole corrections
   LMONO  =      F    monopole corrections only (constant potential shift)
   LDIPOL =      F    correct potential (dipole corrections)
   IDIPOL =      0    1-x, 2-y, 3-z, 4-all directions 
   EPSILON=  1.0000000 bulk dielectric constant

 Core level calculations are selected ICORELEVEL =  2
  CLNT =           1       CLN =     1
  CLL  =           0       CLZ = 0.500
 Exchange correlation treatment:
   GGA     =    --    GGA type
   LEXCH   =     8    internal setting for exchange type
   VOSKOWN=      0    Vosko Wilk Nusair interpolation
   LHFCALC =     F    Hartree Fock is set to
   LHFONE  =     F    Hartree Fock one center treatment
   AEXX    =    0.0000 exact exchange contribution

 Linear response parameters
   LEPSILON=     F    determine dielectric tensor
   LRPA    =     F    only Hartree local field effects (RPA)
   LNABLA  =     F    use nabla operator in PAW spheres
   LVEL    =     F    velocity operator in full k-point grid
   LINTERFAST=   F  fast interpolation
   KINTER  =     0    interpolate to denser k-point grid
   CSHIFT  =0.1000    complex shift for real part using Kramers Kronig
   OMEGAMAX=  -1.0    maximum frequency
   DEG_THRESHOLD= 0.2000000E-02 threshold for treating states as degnerate
   RTIME   =    0.100 relaxation time in fs

 Orbital magnetization related:
   ORBITALMAG=     F  switch on orbital magnetization
   LCHIMAG   =     F  perturbation theory with respect to B field
   DQ        =  0.001000  dq finite difference perturbation B field



--------------------------------------------------------------------------------------------------------


 Static calculation
 charge density and potential will be updated during run
 spin polarized calculation
 Variant of blocked Davidson
 Davidson routine will perform the subspace rotation
 perform sub-space diagonalisation
    after iterative eigenvector-optimisation
 modified Broyden-mixing scheme, WC =      100.0
 initial mixing is a Kerker type mixing with AMIX =  0.4000 and BMIX =      2.0000
 Hartree-type preconditioning will be used
 using additional bands           45
 real space projection scheme for non local part
 use partial core corrections
 calculate Harris-corrections to forces 
   (improved forces if not selfconsistent)
 use gradient corrections 
 use of overlap-Matrix (Vanderbilt PP)
 Gauss-broadening in eV      SIGMA  =   0.01


--------------------------------------------------------------------------------------------------------


  energy-cutoff  :      700.00
  volume of cell :     8000.00
      direct lattice vectors                 reciprocal lattice vectors
    20.000000000  0.000000000  0.000000000     0.050000000  0.000000000  0.000000000
     0.000000000 20.000000000  0.000000000     0.000000000  0.050000000  0.000000000
     0.000000000  0.000000000 20.000000000     0.000000000  0.000000000  0.050000000

  length of vectors
    20.000000000 20.000000000 20.000000000     0.050000000  0.050000000  0.050000000


 
 k-points in units of 2pi/SCALE and weight: K-Points                                
   0.00000000  0.00000000  0.00000000       1.000
 
 k-points in reciprocal lattice and weights: K-Points                                
   0.00000000  0.00000000  0.00000000       1.000
 
 position of ions in fractional coordinates (direct lattice) 
   0.52307882  0.32955005  0.67474498
   0.43793752  0.56561110  0.32757008
   0.45581208  0.52423376  0.38051465
   0.47372925  0.61530131  0.44986522
   0.45595175  0.65963312  0.39935201
   0.43785737  0.63472201  0.33675972
   0.29334713  0.47671938  0.56830116
   0.49710163  0.37190466  0.62618823
   0.60227374  0.41933300  0.60593616
   0.63096398  0.37761922  0.65422416
   0.73964927  0.52855915  0.53463181
   0.70082162  0.56612858  0.49044049
   0.63257913  0.55363620  0.48652424
   0.63952130  0.46927713  0.56732841
   0.70843899  0.47974495  0.57314689
   0.59134754  0.33224398  0.68903016
   0.36211554  0.48866484  0.56417415
   0.40790931  0.62211625  0.69058213
   0.47619960  0.62606623  0.67660612
   0.50295190  0.58590820  0.62668073
   0.39825425  0.53800137  0.60426081
   0.36904589  0.57756069  0.65398228
   0.37289802  0.40579857  0.48223443
   0.30486503  0.39173492  0.48443166
   0.26422003  0.42785518  0.52821594
   0.48989745  0.29510618  0.70074864
   0.61334240  0.29968355  0.72673159
   0.68424189  0.38076917  0.66478776
   0.54225374  0.36233861  0.46129841
   0.31579090  0.57306911  0.66420366
   0.44416348  0.37118871  0.61364770
   0.42392665  0.66833230  0.29622671
   0.45642762  0.71313270  0.40950260
   0.48809132  0.63358802  0.49907234
   0.56912778  0.41808713  0.41480476
   0.73767440  0.44963919  0.60776512
   0.72277620  0.60481012  0.45904817
   0.45570253  0.47012894  0.37468790
   0.40614333  0.37888556  0.44852541
   0.28443799  0.35306162  0.45202062
   0.79326502  0.53703787  0.53892527
   0.55589708  0.58769132  0.61440612
   0.42412006  0.54328620  0.27986105
   0.50894741  0.65984570  0.70400156
   0.26265982  0.50568523  0.60265428
   0.21072272  0.41813760  0.53105039
   0.60090654  0.58197914  0.45254259
   0.38544357  0.65296704  0.72941133
   0.47424490  0.54794204  0.44140236
   0.40180479  0.45306079  0.52108436
   0.53520702  0.41608490  0.59173240
   0.46544808  0.54254992  0.59041194
   0.60138410  0.50650621  0.52397638
   0.53073984  0.40562607  0.44215451
   0.50088568  0.48087016  0.51934246
 
 position of ions in cartesian coordinates  (Angst):
  10.46157638  6.59100110 13.49489953
   8.75875044 11.31222209  6.55140167
   9.11624161 10.48467523  7.61029296
   9.47458509 12.30602619  8.99730442
   9.11903505 13.19266234  7.98704025
   8.75714739 12.69444028  6.73519441
   5.86694270  9.53438759 11.36602327
   9.94203263  7.43809325 12.52376455
  12.04547477  8.38665999 12.11872314
  12.61927957  7.55238445 13.08448329
  14.79298537 10.57118301 10.69263621
  14.01643234 11.32257164  9.80880974
  12.65158254 11.07272405  9.73048485
  12.79042597  9.38554253 11.34656829
  14.16877978  9.59489901 11.46293786
  11.82695089  6.64487969 13.78060313
   7.24231077  9.77329687 11.28348299
   8.15818611 12.44232505 13.81164268
   9.52399198 12.52132464 13.53212240
  10.05903801 11.71816400 12.53361469
   7.96508499 10.76002740 12.08521614
   7.38091777 11.55121387 13.07964553
   7.45796037  8.11597149  9.64468853
   6.09730063  7.83469839  9.68863321
   5.28440067  8.55710369 10.56431882
   9.79794892  5.90212351 14.01497288
  12.26684793  5.99367109 14.53463185
  13.68483783  7.61538334 13.29575520
  10.84507475  7.24677213  9.22596819
   6.31581791 11.46138226 13.28407311
   8.88326966  7.42377422 12.27295397
   8.47853309 13.36664601  5.92453423
   9.12855243 14.26265408  8.19005201
   9.76182647 12.67176037  9.98144677
  11.38255564  8.36174255  8.29609511
  14.75348806  8.99278384 12.15530242
  14.45552391 12.09620238  9.18096343
   9.11405064  9.40257887  7.49375804
   8.12286663  7.57771114  8.97050829
   5.68875982  7.06123239  9.04041232
  15.86530045 10.74075733 10.77850539
  11.11794158 11.75382641 12.28812234
   8.48240128 10.86572407  5.59722093
  10.17894811 13.19691406 14.08003122
   5.25319634 10.11370460 12.05308551
   4.21445446  8.36275200 10.62100772
  12.01813087 11.63958272  9.05085175
   7.70887141 13.05934086 14.58822659
   9.48489793 10.95884088  8.82804729
   8.03609572  9.06121573 10.42168714
  10.70414049  8.32169803 11.83464804
   9.30896151 10.85099836 11.80823871
  12.02768196 10.13012430 10.47952760
  10.61479684  8.11252146  8.84309019
  10.01771355  9.61740316 10.38684921
 


--------------------------------------------------------------------------------------------------------


 k-point  1 :   0.0000 0.0000 0.0000  plane waves:  336427

 maximum and minimum number of plane-waves per node :    336427   336427

 maximum number of plane-waves:    336427
 maximum index in each direction: 
   IXMAX=   43   IYMAX=   43   IZMAX=   43
   IXMIN=  -43   IYMIN=  -43   IZMIN=  -43

 NGX is ok and might be reduce to 174
 NGY is ok and might be reduce to 174
 NGZ is ok and might be reduce to 174

 serial   3D FFT for wavefunctions
 parallel 3D FFT for charge:
    minimum data exchange during FFTs selected (reduces bandwidth)


 total amount of memory used by VASP on root node   877132. kBytes
========================================================================

   base      :      30000. kBytes
   nonlr-proj:      19361. kBytes
   fftplans  :     269516. kBytes
   grid      :     534988. kBytes
   one-center:       1710. kBytes
   wavefun   :      21557. kBytes
 
     INWAV:  cpu time    0.00: real time    0.00
 Broyden mixing: mesh for mixing (old mesh)
   NGX = 87   NGY = 87   NGZ = 87
  (NGX  =360   NGY  =360   NGZ  =360)
  gives a total of 658503 points

 initial charge density was supplied:
 charge density of overlapping atoms calculated
 number of electron     168.5000000 magnetization       0.0000000
 keeping initial charge density in first step


--------------------------------------------------------------------------------------------------------


 Maximum index for non-local projection operator         8166
 Maximum index for augmentation-charges         3214 (set IRDMAX)


--------------------------------------------------------------------------------------------------------


 First call to EWALD:  gamma=   0.089
 Maximum number of real-space cells 3x 3x 3
 Maximum number of reciprocal cells 3x 3x 3

 FEWALD executed in parallel
    FEWALD:  cpu time    0.00: real time    0.00


----------------------------------------- Iteration    1(   1)  ---------------------------------------


    POTLOK:  cpu time    4.74: real time    4.77
    SETDIJ:  cpu time    2.96: real time    2.96
     EDDAV:  cpu time   14.82: real time   15.76
       DOS:  cpu time    0.01: real time    0.01
    --------------------------------------------
      LOOP:  cpu time   22.53: real time   23.50

 eigenvalue-minimisations  :   768
 total energy-change (2. order) : 0.9089853E+03  (-0.5881426E+04)
 number of electron     168.5000000 magnetization       0.0000000
 augmentation part      168.5000000 magnetization       0.0000000

 Free energy of the ion-electron system (eV)
  ---------------------------------------------------
  alpha Z        PSCENC =        12.91687988
  Ewald energy   TEWEN  =     23273.67921634
  -Hartree energ DENC   =    -28875.97803894
  -exchange      EXHF   =         0.00000000
  -V(xc)+E(xc)   XCENC  =       400.93261973
  PAW double counting   =      5890.45591622    -5710.10246236
  entropy T*S    EENTRO =        -0.00000294
  eigenvalues    EBANDS =     -1676.31874173
  atomic energy  EATOM  =      7593.39991119
  ---------------------------------------------------
  free energy    TOTEN  =       908.98529740 eV

  energy without entropy =      908.98530034  energy(sigma->0) =      908.98529887


--------------------------------------------------------------------------------------------------------




----------------------------------------- Iteration    1(   2)  ---------------------------------------


     EDDAV:  cpu time   19.27: real time   20.31
       DOS:  cpu time    0.01: real time    0.01
    --------------------------------------------
      LOOP:  cpu time   19.27: real time   20.32

 eigenvalue-minimisations  :  1024
 total energy-change (2. order) :-0.9774085E+03  (-0.9708824E+03)
 number of electron     168.5000000 magnetization       0.0000000
 augmentation part      168.5000000 magnetization       0.0000000

 Free energy of the ion-electron system (eV)
  ---------------------------------------------------
  alpha Z        PSCENC =        12.91687988
  Ewald energy   TEWEN  =     23273.67921634
  -Hartree energ DENC   =    -28875.97803894
  -exchange      EXHF   =         0.00000000
  -V(xc)+E(xc)   XCENC  =       400.93261973
  PAW double counting   =      5890.45591622    -5710.10246236
  entropy T*S    EENTRO =        -0.00000000
  eigenvalues    EBANDS =     -2653.72728567
  atomic energy  EATOM  =      7593.39991119
  ---------------------------------------------------
  free energy    TOTEN  =       -68.42324360 eV

  energy without entropy =      -68.42324360  energy(sigma->0) =      -68.42324360


--------------------------------------------------------------------------------------------------------




----------------------------------------- Iteration    1(   3)  ---------------------------------------


     EDDAV:  cpu time   16.08: real time   17.03
       DOS:  cpu time    0.02: real time    0.02
    --------------------------------------------
      LOOP:  cpu time   16.10: real time   17.05

 eigenvalue-minimisations  :   832
 total energy-change (2. order) :-0.3248161E+03  (-0.3243703E+03)
 number of electron     168.5000000 magnetization       0.0000000
 augmentation part      168.5000000 magnetization       0.0000000

 Free energy of the ion-electron system (eV)
  ---------------------------------------------------
  alpha Z        PSCENC =        12.91687988
  Ewald energy   TEWEN  =     23273.67921634
  -Hartree energ DENC   =    -28875.97803894
  -exchange      EXHF   =         0.00000000
  -V(xc)+E(xc)   XCENC  =       400.93261973
  PAW double counting   =      5890.45591622    -5710.10246236
  entropy T*S    EENTRO =        -0.00000000
  eigenvalues    EBANDS =     -2978.54338065
  atomic energy  EATOM  =      7593.39991119
  ---------------------------------------------------
  free energy    TOTEN  =      -393.23933858 eV

  energy without entropy =     -393.23933858  energy(sigma->0) =     -393.23933858


--------------------------------------------------------------------------------------------------------




----------------------------------------- Iteration    1(   4)  ---------------------------------------


     EDDAV:  cpu time   12.74: real time   13.43
       DOS:  cpu time    0.01: real time    0.01
    --------------------------------------------
      LOOP:  cpu time   12.75: real time   13.44

 eigenvalue-minimisations  :   640
 total energy-change (2. order) :-0.1881785E+02  (-0.1879521E+02)
 number of electron     168.5000000 magnetization       0.0000000
 augmentation part      168.5000000 magnetization       0.0000000

 Free energy of the ion-electron system (eV)
  ---------------------------------------------------
  alpha Z        PSCENC =        12.91687988
  Ewald energy   TEWEN  =     23273.67921634
  -Hartree energ DENC   =    -28875.97803894
  -exchange      EXHF   =         0.00000000
  -V(xc)+E(xc)   XCENC  =       400.93261973
  PAW double counting   =      5890.45591622    -5710.10246236
  entropy T*S    EENTRO =        -0.00000000
  eigenvalues    EBANDS =     -2997.36123106
  atomic energy  EATOM  =      7593.39991119
  ---------------------------------------------------
  free energy    TOTEN  =      -412.05718899 eV

  energy without entropy =     -412.05718899  energy(sigma->0) =     -412.05718899


--------------------------------------------------------------------------------------------------------




----------------------------------------- Iteration    1(   5)  ---------------------------------------


     EDDAV:  cpu time   17.09: real time   18.08
       DOS:  cpu time    0.01: real time    0.01
    CHARGE:  cpu time    5.22: real time    5.23
    MIXING:  cpu time    0.06: real time    0.07
    --------------------------------------------
      LOOP:  cpu time   22.39: real time   23.39

 eigenvalue-minimisations  :   896
 total energy-change (2. order) :-0.2470010E+00  (-0.2468959E+00)
 number of electron     166.0000000 magnetization      -0.0000000
 augmentation part        3.6583109 magnetization       0.0000047

 Broyden mixing:
  rms(total) = 0.56832E+01    rms(broyden)= 0.56825E+01
  rms(prec ) = 0.60416E+01
  weight for this iteration     100.00

 Free energy of the ion-electron system (eV)
  ---------------------------------------------------
  alpha Z        PSCENC =        12.91687988
  Ewald energy   TEWEN  =     23273.67921634
  -Hartree energ DENC   =    -28875.97803894
  -exchange      EXHF   =         0.00000000
  -V(xc)+E(xc)   XCENC  =       400.93261973
  PAW double counting   =      5890.45591622    -5710.10246236
  entropy T*S    EENTRO =        -0.00000000
  eigenvalues    EBANDS =     -2997.60823203
  atomic energy  EATOM  =      7593.39991119
  ---------------------------------------------------
  free energy    TOTEN  =      -412.30418996 eV

  energy without entropy =     -412.30418996  energy(sigma->0) =     -412.30418996


--------------------------------------------------------------------------------------------------------




----------------------------------------- Iteration    1(   6)  ---------------------------------------


    POTLOK:  cpu time    4.62: real time    4.64
    SETDIJ:  cpu time    2.83: real time    2.83
     EDDAV:  cpu time   10.91: real time   11.54
       DOS:  cpu time    0.01: real time    0.01
    CHARGE:  cpu time    5.27: real time    5.28
    MIXING:  cpu time    0.09: real time    0.10
    --------------------------------------------
      LOOP:  cpu time   23.74: real time   24.40

 eigenvalue-minimisations  :   512
 total energy-change (2. order) : 0.1949538E+02  (-0.3188625E+02)
 number of electron     166.0000000 magnetization       0.0000000
 augmentation part        6.4100658 magnetization       0.0000942

 Broyden mixing:
  rms(total) = 0.37859E+01    rms(broyden)= 0.37858E+01
  rms(prec ) = 0.39462E+01
  weight for this iteration     100.00

 eigenvalues of (default mixing * dielectric matrix)
  average eigenvalue GAMMA=   1.1110
  1.1110

 Free energy of the ion-electron system (eV)
  ---------------------------------------------------
  alpha Z        PSCENC =        12.91687988
  Ewald energy   TEWEN  =     23273.67921634
  -Hartree energ DENC   =    -28886.07309614
  -exchange      EXHF   =         0.00000000
  -V(xc)+E(xc)   XCENC  =       406.51905806
  PAW double counting   =     20878.90173331   -20710.98701392
  entropy T*S    EENTRO =        -0.00000000
  eigenvalues    EBANDS =     -2961.16550074
  atomic energy  EATOM  =      7593.39991119
  ---------------------------------------------------
  free energy    TOTEN  =      -392.80881201 eV

  energy without entropy =     -392.80881201  energy(sigma->0) =     -392.80881201


--------------------------------------------------------------------------------------------------------




----------------------------------------- Iteration    1(   7)  ---------------------------------------


    POTLOK:  cpu time    4.62: real time    4.64
    SETDIJ:  cpu time    2.86: real time    2.87
     EDDAV:  cpu time   14.09: real time   15.32
       DOS:  cpu time    0.05: real time    0.05
    CHARGE:  cpu time    5.06: real time    5.12
    MIXING:  cpu time    0.13: real time    0.13
    --------------------------------------------
      LOOP:  cpu time   26.82: real time   28.14

 eigenvalue-minimisations  :   704
 total energy-change (2. order) : 0.1008577E+02  (-0.2355919E+01)
 number of electron     166.0000000 magnetization       0.0000000
 augmentation part        5.5134817 magnetization       0.0003004

 Broyden mixing:
  rms(total) = 0.23158E+01    rms(broyden)= 0.23157E+01
  rms(prec ) = 0.23826E+01
  weight for this iteration     100.00

 eigenvalues of (default mixing * dielectric matrix)
  average eigenvalue GAMMA=   1.4932
  0.7634  2.2230

 Free energy of the ion-electron system (eV)
  ---------------------------------------------------
  alpha Z        PSCENC =        12.91687988
  Ewald energy   TEWEN  =     23273.67921634
  -Hartree energ DENC   =    -29019.46985406
  -exchange      EXHF   =         0.00000000
  -V(xc)+E(xc)   XCENC  =       412.14991241
  PAW double counting   =     37117.09944543   -36944.50517142
  entropy T*S    EENTRO =        -0.00000000
  eigenvalues    EBANDS =     -2827.99337733
  atomic energy  EATOM  =      7593.39991119
  ---------------------------------------------------
  free energy    TOTEN  =      -382.72303756 eV

  energy without entropy =     -382.72303756  energy(sigma->0) =     -382.72303756


--------------------------------------------------------------------------------------------------------




----------------------------------------- Iteration    1(   8)  ---------------------------------------


    POTLOK:  cpu time    4.60: real time    4.62
    SETDIJ:  cpu time    2.83: real time    2.83
     EDDAV:  cpu time   15.32: real time   16.59
       DOS:  cpu time    0.04: real time    0.04
    CHARGE:  cpu time    5.16: real time    5.19
    MIXING:  cpu time    0.07: real time    0.07
    --------------------------------------------
      LOOP:  cpu time   28.02: real time   29.35

 eigenvalue-minimisations  :   768
 total energy-change (2. order) : 0.3994783E+01  (-0.1635355E+01)
 number of electron     166.0000000 magnetization       0.0000000
 augmentation part        4.8286521 magnetization       0.0000078

 Broyden mixing:
  rms(total) = 0.90632E+00    rms(broyden)= 0.90628E+00
  rms(prec ) = 0.99779E+00
  weight for this iteration     100.00

 eigenvalues of (default mixing * dielectric matrix)
  average eigenvalue GAMMA=   1.4676
  2.6931  0.8549  0.8549

 Free energy of the ion-electron system (eV)
  ---------------------------------------------------
  alpha Z        PSCENC =        12.91687988
  Ewald energy   TEWEN  =     23273.67921634
  -Hartree energ DENC   =    -29173.88379475
  -exchange      EXHF   =         0.00000000
  -V(xc)+E(xc)   XCENC  =       420.33453235
  PAW double counting   =     71756.16936422   -71580.73859073
  entropy T*S    EENTRO =        -0.00000000
  eigenvalues    EBANDS =     -2680.60577293
  atomic energy  EATOM  =      7593.39991119
  ---------------------------------------------------
  free energy    TOTEN  =      -378.72825441 eV

  energy without entropy =     -378.72825441  energy(sigma->0) =     -378.72825441


--------------------------------------------------------------------------------------------------------




----------------------------------------- Iteration    1(   9)  ---------------------------------------


    POTLOK:  cpu time    4.60: real time    4.62
    SETDIJ:  cpu time    2.82: real time    2.82
     EDDAV:  cpu time   15.03: real time   16.38
       DOS:  cpu time    0.04: real time    0.04
    CHARGE:  cpu time    4.80: real time    4.95
    MIXING:  cpu time    0.32: real time    0.32
    --------------------------------------------
      LOOP:  cpu time   27.61: real time   29.14

 eigenvalue-minimisations  :   768
 total energy-change (2. order) : 0.1042959E+01  (-0.6860926E+00)
 number of electron     166.0000000 magnetization       0.0000000
 augmentation part        5.2911094 magnetization      -0.0000367

 Broyden mixing:
  rms(total) = 0.34759E+00    rms(broyden)= 0.34756E+00
  rms(prec ) = 0.38755E+00
  weight for this iteration     100.00

 eigenvalues of (default mixing * dielectric matrix)
  average eigenvalue GAMMA=   1.3258
  2.5215  1.2309  0.7755  0.7755

 Free energy of the ion-electron system (eV)
  ---------------------------------------------------
  alpha Z        PSCENC =        12.91687988
  Ewald energy   TEWEN  =     23273.67921634
  -Hartree energ DENC   =    -29181.98829435
  -exchange      EXHF   =         0.00000000
  -V(xc)+E(xc)   XCENC  =       422.47001909
  PAW double counting   =     82480.35492206   -82307.07243261
  entropy T*S    EENTRO =        -0.00000000
  eigenvalues    EBANDS =     -2671.44551695
  atomic energy  EATOM  =      7593.39991119
  ---------------------------------------------------
  free energy    TOTEN  =      -377.68529535 eV

  energy without entropy =     -377.68529535  energy(sigma->0) =     -377.68529535


--------------------------------------------------------------------------------------------------------




----------------------------------------- Iteration    1(  10)  ---------------------------------------


    POTLOK:  cpu time    4.60: real time    4.61
    SETDIJ:  cpu time    2.83: real time    2.83
     EDDAV:  cpu time   15.17: real time   16.45
       DOS:  cpu time    0.05: real time    0.06
    CHARGE:  cpu time    5.27: real time    5.30
    MIXING:  cpu time    0.08: real time    0.09
    --------------------------------------------
      LOOP:  cpu time   28.01: real time   29.34

 eigenvalue-minimisations  :   768
 total energy-change (2. order) : 0.3498627E-01  (-0.2446134E-01)
 number of electron     166.0000000 magnetization       0.0000000
 augmentation part        5.3463056 magnetization      -0.0000178

 Broyden mixing:
  rms(total) = 0.25220E+00    rms(broyden)= 0.25220E+00
  rms(prec ) = 0.29818E+00
  weight for this iteration     100.00

 eigenvalues of (default mixing * dielectric matrix)
  average eigenvalue GAMMA=   1.3802
  2.4979  1.7734  0.8249  0.8249  0.9797

 Free energy of the ion-electron system (eV)
  ---------------------------------------------------
  alpha Z        PSCENC =        12.91687988
  Ewald energy   TEWEN  =     23273.67921634
  -Hartree energ DENC   =    -29172.04634553
  -exchange      EXHF   =         0.00000000
  -V(xc)+E(xc)   XCENC  =       422.49143109
  PAW double counting   =     81313.65102055   -81140.63299022
  entropy T*S    EENTRO =        -0.00000000
  eigenvalues    EBANDS =     -2681.10943240
  atomic energy  EATOM  =      7593.39991119
  ---------------------------------------------------
  free energy    TOTEN  =      -377.65030908 eV

  energy without entropy =     -377.65030908  energy(sigma->0) =     -377.65030908


--------------------------------------------------------------------------------------------------------




----------------------------------------- Iteration    1(  11)  ---------------------------------------


    POTLOK:  cpu time    4.60: real time    4.62
    SETDIJ:  cpu time    2.81: real time    2.82
     EDDAV:  cpu time   15.05: real time   16.35
       DOS:  cpu time    0.05: real time    0.05
    CHARGE:  cpu time    5.28: real time    5.29
    MIXING:  cpu time    0.07: real time    0.07
    --------------------------------------------
      LOOP:  cpu time   27.86: real time   29.20

 eigenvalue-minimisations  :   768
 total energy-change (2. order) : 0.1400478E+00  (-0.1659922E-01)
 number of electron     166.0000000 magnetization       0.0000000
 augmentation part        5.2889441 magnetization       0.0000022

 Broyden mixing:
  rms(total) = 0.10820E+00    rms(broyden)= 0.10820E+00
  rms(prec ) = 0.15160E+00
  weight for this iteration     100.00

 eigenvalues of (default mixing * dielectric matrix)
  average eigenvalue GAMMA=   1.4945
  2.6766  2.6766  0.8377  0.8377  1.0374  0.9011

 Free energy of the ion-electron system (eV)
  ---------------------------------------------------
  alpha Z        PSCENC =        12.91687988
  Ewald energy   TEWEN  =     23273.67921634
  -Hartree energ DENC   =    -29171.57797922
  -exchange      EXHF   =         0.00000000
  -V(xc)+E(xc)   XCENC  =       423.21109001
  PAW double counting   =     81973.31584063   -81800.04990291
  entropy T*S    EENTRO =        -0.00000000
  eigenvalues    EBANDS =     -2682.40531721
  atomic energy  EATOM  =      7593.39991119
  ---------------------------------------------------
  free energy    TOTEN  =      -377.51026127 eV

  energy without entropy =     -377.51026127  energy(sigma->0) =     -377.51026127


--------------------------------------------------------------------------------------------------------




----------------------------------------- Iteration    1(  12)  ---------------------------------------


    POTLOK:  cpu time    4.55: real time    4.80
    SETDIJ:  cpu time    2.84: real time    2.84
     EDDAV:  cpu time   15.21: real time   16.46
       DOS:  cpu time    0.05: real time    0.05
    CHARGE:  cpu time    5.26: real time    5.26
    MIXING:  cpu time    0.14: real time    0.14
    --------------------------------------------
      LOOP:  cpu time   28.06: real time   29.56

 eigenvalue-minimisations  :   768
 total energy-change (2. order) : 0.7691397E-01  (-0.1078816E-01)
 number of electron     166.0000000 magnetization       0.0000000
 augmentation part        5.2464591 magnetization      -0.0000073

 Broyden mixing:
  rms(total) = 0.70075E-01    rms(broyden)= 0.70071E-01
  rms(prec ) = 0.99615E-01
  weight for this iteration     100.00

 eigenvalues of (default mixing * dielectric matrix)
  average eigenvalue GAMMA=   1.4437
  2.8300  2.8300  0.8443  0.8443  0.9908  0.9908  0.7757

 Free energy of the ion-electron system (eV)
  ---------------------------------------------------
  alpha Z        PSCENC =        12.91687988
  Ewald energy   TEWEN  =     23273.67921634
  -Hartree energ DENC   =    -29166.50724307
  -exchange      EXHF   =         0.00000000
  -V(xc)+E(xc)   XCENC  =       423.84973488
  PAW double counting   =     81685.56482224   -81512.19618803
  entropy T*S    EENTRO =        -0.00000000
  eigenvalues    EBANDS =     -2688.14048075
  atomic energy  EATOM  =      7593.39991119
  ---------------------------------------------------
  free energy    TOTEN  =      -377.43334731 eV

  energy without entropy =     -377.43334731  energy(sigma->0) =     -377.43334731


--------------------------------------------------------------------------------------------------------




----------------------------------------- Iteration    1(  13)  ---------------------------------------


    POTLOK:  cpu time    4.63: real time    4.66
    SETDIJ:  cpu time    2.84: real time    2.84
     EDDAV:  cpu time   15.07: real time   16.36
       DOS:  cpu time    0.04: real time    0.04
    CHARGE:  cpu time    5.19: real time    5.19
    MIXING:  cpu time    0.15: real time    0.15
    --------------------------------------------
      LOOP:  cpu time   27.92: real time   29.24

 eigenvalue-minimisations  :   768
 total energy-change (2. order) : 0.1612222E-01  (-0.2060206E-02)
 number of electron     166.0000000 magnetization       0.0000000
 augmentation part        5.2578955 magnetization       0.0000075

 Broyden mixing:
  rms(total) = 0.47873E-01    rms(broyden)= 0.47873E-01
  rms(prec ) = 0.70841E-01
  weight for this iteration     100.00

 eigenvalues of (default mixing * dielectric matrix)
  average eigenvalue GAMMA=   1.5640
  3.2028  3.0305  1.7769  1.0884  1.0884  0.8453  0.8453  0.6341

 Free energy of the ion-electron system (eV)
  ---------------------------------------------------
  alpha Z        PSCENC =        12.91687988
  Ewald energy   TEWEN  =     23273.67921634
  -Hartree energ DENC   =    -29159.36644245
  -exchange      EXHF   =         0.00000000
  -V(xc)+E(xc)   XCENC  =       424.07625681
  PAW double counting   =     81237.92380688   -81064.67033011
  entropy T*S    EENTRO =        -0.00000000
  eigenvalues    EBANDS =     -2695.37652364
  atomic energy  EATOM  =      7593.39991119
  ---------------------------------------------------
  free energy    TOTEN  =      -377.41722509 eV

  energy without entropy =     -377.41722509  energy(sigma->0) =     -377.41722509


--------------------------------------------------------------------------------------------------------




----------------------------------------- Iteration    1(  14)  ---------------------------------------


    POTLOK:  cpu time    4.68: real time    4.71
    SETDIJ:  cpu time    2.84: real time    2.84
     EDDAV:  cpu time   15.15: real time   16.45
       DOS:  cpu time    0.05: real time    0.05
    CHARGE:  cpu time    5.19: real time    5.20
    MIXING:  cpu time    0.19: real time    0.19
    --------------------------------------------
      LOOP:  cpu time   28.10: real time   29.44

 eigenvalue-minimisations  :   768
 total energy-change (2. order) : 0.8747942E-02  (-0.1676006E-02)
 number of electron     166.0000000 magnetization       0.0000000
 augmentation part        5.2634325 magnetization      -0.0000100

 Broyden mixing:
  rms(total) = 0.26300E-01    rms(broyden)= 0.26298E-01
  rms(prec ) = 0.42274E-01
  weight for this iteration     100.00

 eigenvalues of (default mixing * dielectric matrix)
  average eigenvalue GAMMA=   1.6489
  4.5879  2.5191  2.1258  1.3051  1.0004  1.0004  0.8370  0.8370  0.6275

 Free energy of the ion-electron system (eV)
  ---------------------------------------------------
  alpha Z        PSCENC =        12.91687988
  Ewald energy   TEWEN  =     23273.67921634
  -Hartree energ DENC   =    -29150.02496409
  -exchange      EXHF   =         0.00000000
  -V(xc)+E(xc)   XCENC  =       424.32564148
  PAW double counting   =     80959.48911998   -80786.31776096
  entropy T*S    EENTRO =        -0.00000000
  eigenvalues    EBANDS =     -2704.87652098
  atomic energy  EATOM  =      7593.39991119
  ---------------------------------------------------
  free energy    TOTEN  =      -377.40847715 eV

  energy without entropy =     -377.40847715  energy(sigma->0) =     -377.40847715


--------------------------------------------------------------------------------------------------------




----------------------------------------- Iteration    1(  15)  ---------------------------------------


    POTLOK:  cpu time    4.61: real time    4.65
    SETDIJ:  cpu time    2.81: real time    2.81
     EDDAV:  cpu time   15.06: real time   16.34
       DOS:  cpu time    0.05: real time    0.05
    CHARGE:  cpu time    5.28: real time    5.28
    MIXING:  cpu time    0.12: real time    0.12
    --------------------------------------------
      LOOP:  cpu time   27.92: real time   29.25

 eigenvalue-minimisations  :   768
 total energy-change (2. order) :-0.1709144E-02  (-0.5679450E-03)
 number of electron     166.0000000 magnetization      -0.0000000
 augmentation part        5.2572748 magnetization       0.0000060

 Broyden mixing:
  rms(total) = 0.22907E-01    rms(broyden)= 0.22906E-01
  rms(prec ) = 0.31799E-01
  weight for this iteration     100.00

 eigenvalues of (default mixing * dielectric matrix)
  average eigenvalue GAMMA=   1.7029
  4.9993  2.2263  2.2263  2.1053  0.8497  0.8497  1.1897  1.0735  0.8831  0.6262

 Free energy of the ion-electron system (eV)
  ---------------------------------------------------
  alpha Z        PSCENC =        12.91687988
  Ewald energy   TEWEN  =     23273.67921634
  -Hartree energ DENC   =    -29142.43536686
  -exchange      EXHF   =         0.00000000
  -V(xc)+E(xc)   XCENC  =       424.45805378
  PAW double counting   =     81045.12882985   -80871.93301652
  entropy T*S    EENTRO =        -0.00000000
  eigenvalues    EBANDS =     -2712.62469396
  atomic energy  EATOM  =      7593.39991119
  ---------------------------------------------------
  free energy    TOTEN  =      -377.41018629 eV

  energy without entropy =     -377.41018629  energy(sigma->0) =     -377.41018629


--------------------------------------------------------------------------------------------------------




----------------------------------------- Iteration    1(  16)  ---------------------------------------


    POTLOK:  cpu time    4.80: real time    4.84
    SETDIJ:  cpu time    2.82: real time    2.82
     EDDAV:  cpu time   15.06: real time   16.35
       DOS:  cpu time    0.05: real time    0.05
    CHARGE:  cpu time    5.41: real time    5.41
    MIXING:  cpu time    0.14: real time    0.14
    --------------------------------------------
      LOOP:  cpu time   28.28: real time   29.61

 eigenvalue-minimisations  :   768
 total energy-change (2. order) :-0.1132607E-01  (-0.2515618E-03)
 number of electron     166.0000000 magnetization      -0.0000000
 augmentation part        5.2599048 magnetization      -0.0000080

 Broyden mixing:
  rms(total) = 0.97721E-02    rms(broyden)= 0.97714E-02
  rms(prec ) = 0.16064E-01
  weight for this iteration     100.00

 eigenvalues of (default mixing * dielectric matrix)
  average eigenvalue GAMMA=   1.8174
  6.1410  2.7604  2.7604  1.5690  1.5690  0.8470  0.8470  1.0103  1.0103  0.8522
  0.6253

 Free energy of the ion-electron system (eV)
  ---------------------------------------------------
  alpha Z        PSCENC =        12.91687988
  Ewald energy   TEWEN  =     23273.67921634
  -Hartree energ DENC   =    -29132.84712182
  -exchange      EXHF   =         0.00000000
  -V(xc)+E(xc)   XCENC  =       424.40810067
  PAW double counting   =     81146.26593915   -80973.04779957
  entropy T*S    EENTRO =        -0.00000000
  eigenvalues    EBANDS =     -2722.19663821
  atomic energy  EATOM  =      7593.39991119
  ---------------------------------------------------
  free energy    TOTEN  =      -377.42151236 eV

  energy without entropy =     -377.42151236  energy(sigma->0) =     -377.42151236


--------------------------------------------------------------------------------------------------------




----------------------------------------- Iteration    1(  17)  ---------------------------------------


    POTLOK:  cpu time    4.63: real time    4.66
    SETDIJ:  cpu time    2.82: real time    2.82
     EDDAV:  cpu time   15.08: real time   16.37
       DOS:  cpu time    0.04: real time    0.04
    CHARGE:  cpu time    5.12: real time    5.12
    MIXING:  cpu time    0.22: real time    0.22
    --------------------------------------------
      LOOP:  cpu time   27.91: real time   29.23

 eigenvalue-minimisations  :   768
 total energy-change (2. order) :-0.5647746E-02  (-0.1445980E-03)
 number of electron     166.0000000 magnetization      -0.0000000
 augmentation part        5.2628496 magnetization       0.0000057

 Broyden mixing:
  rms(total) = 0.75106E-02    rms(broyden)= 0.75105E-02
  rms(prec ) = 0.10508E-01
  weight for this iteration     100.00

 eigenvalues of (default mixing * dielectric matrix)
  average eigenvalue GAMMA=   1.8526
  6.7570  2.9364  2.9364  1.6949  1.6949  0.8499  0.8499  1.0394  1.0394  0.9038
  0.9038  0.6250

 Free energy of the ion-electron system (eV)
  ---------------------------------------------------
  alpha Z        PSCENC =        12.91687988
  Ewald energy   TEWEN  =     23273.67921634
  -Hartree energ DENC   =    -29126.36295450
  -exchange      EXHF   =         0.00000000
  -V(xc)+E(xc)   XCENC  =       424.37365433
  PAW double counting   =     81167.92261090   -80994.70582643
  entropy T*S    EENTRO =        -0.00000000
  eigenvalues    EBANDS =     -2728.65065183
  atomic energy  EATOM  =      7593.39991119
  ---------------------------------------------------
  free energy    TOTEN  =      -377.42716011 eV

  energy without entropy =     -377.42716011  energy(sigma->0) =     -377.42716011


--------------------------------------------------------------------------------------------------------




----------------------------------------- Iteration    1(  18)  ---------------------------------------


    POTLOK:  cpu time    4.77: real time    4.79
    SETDIJ:  cpu time    2.82: real time    2.82
     EDDAV:  cpu time   15.09: real time   16.34
       DOS:  cpu time    0.05: real time    0.05
    CHARGE:  cpu time    5.14: real time    5.15
    MIXING:  cpu time    0.13: real time    0.13
    --------------------------------------------
      LOOP:  cpu time   27.99: real time   29.29

 eigenvalue-minimisations  :   768
 total energy-change (2. order) :-0.4996860E-02  (-0.4947578E-04)
 number of electron     166.0000000 magnetization      -0.0000000
 augmentation part        5.2624982 magnetization      -0.0000119

 Broyden mixing:
  rms(total) = 0.57558E-02    rms(broyden)= 0.57556E-02
  rms(prec ) = 0.73802E-02
  weight for this iteration     100.00

 eigenvalues of (default mixing * dielectric matrix)
[...]
 12.561   0.000  21.156   0.000   0.003   0.000  -0.003   0.000   0.002   0.000   0.006   0.000  -0.005   0.000   0.003   0.000
 21.156   0.000  35.633   0.000   0.006   0.000  -0.005   0.000   0.003   0.000   0.010   0.000  -0.009   0.000   0.005   0.000
  0.003   0.000   0.006   0.000  -3.540   0.000   0.001   0.000  -0.000   0.000  -6.362   0.000   0.001   0.000  -0.000   0.000
 -0.003   0.000  -0.005   0.000   0.001   0.000  -3.540   0.000  -0.000   0.000   0.001   0.000  -6.362   0.000  -0.001   0.000
  0.002   0.000   0.003   0.000  -0.000   0.000  -0.000   0.000  -3.540   0.000  -0.000   0.000  -0.001   0.000  -6.363   0.000
  0.006   0.000   0.010   0.000  -6.362   0.000   0.001   0.000  -0.000   0.000 -11.411   0.000   0.002   0.000  -0.000   0.000
 -0.005   0.000  -0.009   0.000   0.001   0.000  -6.362   0.000  -0.001   0.000   0.002   0.000 -11.411   0.000  -0.001   0.000
  0.003   0.000   0.005   0.000  -0.000   0.000  -0.001   0.000  -6.363   0.000  -0.000   0.000  -0.001   0.000 -11.414   0.000
 pseudopotential strength for first ion, spin component:           2
 12.561   0.000  21.156   0.000   0.003   0.000  -0.003   0.000   0.002   0.000   0.006   0.000  -0.005   0.000   0.003   0.000
 21.156   0.000  35.633   0.000   0.006   0.000  -0.005   0.000   0.003   0.000   0.010   0.000  -0.009   0.000   0.005   0.000
  0.003   0.000   0.006   0.000  -3.540   0.000   0.001   0.000  -0.000   0.000  -6.362   0.000   0.001   0.000  -0.000   0.000
 -0.003   0.000  -0.005   0.000   0.001   0.000  -3.540   0.000  -0.000   0.000   0.001   0.000  -6.362   0.000  -0.001   0.000
  0.002   0.000   0.003   0.000  -0.000   0.000  -0.000   0.000  -3.540   0.000  -0.000   0.000  -0.001   0.000  -6.363   0.000
  0.006   0.000   0.010   0.000  -6.362   0.000   0.001   0.000  -0.000   0.000 -11.411   0.000   0.002   0.000  -0.000   0.000
 -0.005   0.000  -0.009   0.000   0.001   0.000  -6.362   0.000  -0.001   0.000   0.002   0.000 -11.411   0.000  -0.001   0.000
  0.003   0.000   0.005   0.000  -0.000   0.000  -0.001   0.000  -6.363   0.000  -0.000   0.000  -0.001   0.000 -11.414   0.000
 total augmentation occupancy for first ion, spin component:           1
  1.096  -0.115   0.392  -0.324   0.277  -0.144   0.117  -0.105
 -0.115   0.388  -0.176   0.145  -0.123   0.049  -0.039   0.038
  0.392  -0.176   1.835  -1.067   0.101  -0.173   0.310  -0.006
 -0.324   0.145  -1.067   1.911   0.453   0.310  -0.208  -0.158
  0.277  -0.123   0.101   0.453   2.963  -0.005  -0.158  -0.518
 -0.144   0.049  -0.173   0.310  -0.005   0.093  -0.031  -0.018
  0.117  -0.039   0.310  -0.208  -0.158  -0.031   0.107   0.038
 -0.105   0.038  -0.006  -0.158  -0.518  -0.018   0.038   0.147
 total augmentation occupancy for first ion, spin component:           2
  0.000  -0.000   0.000  -0.000   0.000  -0.000   0.000  -0.000
 -0.000  -0.000  -0.000   0.000  -0.000   0.000   0.000   0.000
  0.000  -0.000  -0.000  -0.000  -0.000   0.000  -0.000   0.000
 -0.000   0.000  -0.000  -0.000   0.000  -0.000   0.000  -0.000
  0.000  -0.000  -0.000   0.000  -0.000   0.000  -0.000  -0.000
 -0.000   0.000   0.000  -0.000   0.000   0.000   0.000  -0.000
  0.000   0.000  -0.000   0.000  -0.000   0.000   0.000   0.000
 -0.000   0.000   0.000  -0.000  -0.000  -0.000   0.000   0.000


------------------------ aborting loop because EDIFF is reached ----------------------------------------


    CHARGE:  cpu time    5.22: real time    5.22
    FORLOC:  cpu time    0.54: real time    0.54
    FORNL :  cpu time   19.48: real time   19.51
    STRESS:  cpu time   61.60: real time   61.67
    FORCOR:  cpu time    4.22: real time    4.23
    FORHAR:  cpu time    0.99: real time    1.00
    MIXING:  cpu time    0.20: real time    0.21
    OFIELD:  cpu time    0.00: real time    0.00

  FORCE on cell =-STRESS in cart. coord.  units (eV):
  Direction    XX          YY          ZZ          XY          YZ          ZX
  --------------------------------------------------------------------------------------
  Alpha Z    12.91688    12.91688    12.91688
  Ewald   11129.25595  5621.69221  6522.71661   374.90408 -1627.21650   916.17957
  Hartree 12500.33662  7827.80637  8789.82373    93.47938 -1468.57740   728.89990
  E(xc)    -688.94001  -691.48509  -692.13288     1.40639    -0.20192     0.69901
  Local  -26001.75614-15853.79883-17736.44863  -447.02012  3091.23773 -1643.97430
  n-local   -28.47709   -28.54310   -32.00081     3.48287    -1.22036    -0.84280
  augment    83.21926    84.12859    82.88102     1.66036    -0.02464     0.26353
  Kinetic  2978.80125  3012.60687  3037.56868   -28.41847     7.93698    -1.25293
  Fock        0.00000     0.00000     0.00000     0.00000     0.00000     0.00000
  -------------------------------------------------------------------------------------
  Total     -14.64327   -14.67610   -14.67539    -0.50551     1.93387    -0.02801
  in kB      -2.93264    -2.93921    -2.93907    -0.10124     0.38730    -0.00561
  external pressure =       -2.94 kB  Pullay stress =        0.00 kB


 VOLUME and BASIS-vectors are now :
 -----------------------------------------------------------------------------
  energy-cutoff  :      700.00
  volume of cell :     8000.00
      direct lattice vectors                 reciprocal lattice vectors
    20.000000000  0.000000000  0.000000000     0.050000000  0.000000000  0.000000000
     0.000000000 20.000000000  0.000000000     0.000000000  0.050000000  0.000000000
     0.000000000  0.000000000 20.000000000     0.000000000  0.000000000  0.050000000

  length of vectors
    20.000000000 20.000000000 20.000000000     0.050000000  0.050000000  0.050000000


 FORCES acting on ions
    electron-ion (+dipol)            ewald-force                    non-local-force                 convergence-correction
 -----------------------------------------------------------------------------------------------
   0.836E+02 0.300E+03 -.245E+03   -.846E+02 -.302E+03 0.247E+03   0.102E+01 0.222E+01 -.205E+01   0.284E-04 -.134E-04 0.131E-04
   0.878E+02 -.918E+01 0.333E+03   -.885E+02 0.946E+01 -.335E+03   0.656E+00 -.290E+00 0.184E+01   -.733E-05 0.368E-05 -.387E-04
   0.679E+02 0.802E+02 0.318E+03   -.701E+02 -.823E+02 -.324E+03   0.216E+01 0.208E+01 0.641E+01   -.124E-05 -.110E-04 0.411E-05
   0.377E+01 -.318E+03 0.299E+02   -.405E+01 0.325E+03 -.294E+02   0.288E+00 -.698E+01 -.486E+00   -.128E-05 -.686E-05 0.230E-05
   0.362E+02 -.325E+03 0.105E+03   -.366E+02 0.327E+03 -.105E+03   0.363E+00 -.178E+01 0.646E+00   0.522E-06 0.273E-04 -.168E-04
   0.804E+02 -.208E+03 0.263E+03   -.809E+02 0.209E+03 -.265E+03   0.534E+00 -.113E+01 0.139E+01   -.543E-05 0.356E-04 -.441E-04
   0.323E+03 -.352E+02 -.116E+03   -.325E+03 0.350E+02 0.117E+03   0.238E+01 0.196E+00 -.256E+00   -.290E-04 -.125E-04 0.414E-05
   0.154E+03 0.249E+03 -.157E+03   -.160E+03 -.251E+03 0.157E+03   0.642E+01 0.137E+01 0.226E+00   0.910E-05 -.349E-04 0.420E-04
   -.227E+03 0.121E+03 -.136E+03   0.233E+03 -.121E+03 0.138E+03   -.552E+01 0.377E+00 -.212E+01   0.712E-05 -.424E-05 0.114E-05
   -.261E+03 0.142E+03 -.181E+03   0.263E+03 -.142E+03 0.182E+03   -.225E+01 0.498E+00 -.119E+01   0.818E-06 -.360E-04 0.224E-04
   -.338E+03 -.698E+02 -.714E+00   0.340E+03 0.706E+02 0.551E+00   -.216E+01 -.688E+00 0.156E+00   0.393E-04 0.219E-04 -.105E-04
   -.258E+03 -.193E+03 0.137E+03   0.259E+03 0.194E+03 -.138E+03   -.148E+01 -.133E+01 0.849E+00   0.345E-04 0.178E-04 -.118E-04
   -.181E+03 -.214E+03 0.187E+03   0.185E+03 0.219E+03 -.191E+03   -.314E+01 -.524E+01 0.425E+01   0.148E-04 -.369E-05 -.542E-05
   -.265E+03 0.633E+02 -.919E+02   0.271E+03 -.645E+02 0.943E+02   -.517E+01 0.118E+01 -.232E+01   0.628E-07 0.657E-05 -.149E-04
   -.315E+03 0.608E+02 -.112E+03   0.317E+03 -.604E+02 0.112E+03   -.241E+01 -.393E+00 -.219E+00   0.305E-04 0.554E-05 -.315E-05
   -.132E+03 0.232E+03 -.240E+03   0.137E+03 -.233E+03 0.243E+03   -.563E+01 0.109E+01 -.251E+01   -.205E-04 -.470E-04 0.273E-04
   0.272E+03 -.299E+02 -.103E+03   -.277E+03 0.317E+02 0.106E+03   0.510E+01 -.185E+01 -.268E+01   -.993E-05 -.474E-05 -.110E-04
   0.127E+03 -.218E+03 -.261E+03   -.128E+03 0.220E+03 0.262E+03   0.701E+00 -.131E+01 -.156E+01   -.216E-04 0.390E-04 0.358E-04
   -.743E+02 -.256E+03 -.246E+03   0.746E+02 0.258E+03 0.247E+03   -.288E+00 -.147E+01 -.151E+01   -.132E-04 0.222E-04 0.181E-04
   -.158E+03 -.237E+03 -.196E+03   0.162E+03 0.242E+03 0.200E+03   -.393E+01 -.483E+01 -.415E+01   -.147E-04 -.119E-04 -.340E-05
   0.233E+03 -.967E+02 -.157E+03   -.238E+03 0.976E+02 0.160E+03   0.572E+01 -.969E+00 -.267E+01   0.154E-04 0.117E-04 0.819E-06
   0.265E+03 -.125E+03 -.200E+03   -.267E+03 0.126E+03 0.202E+03   0.127E+01 -.128E+01 -.178E+01   -.206E-04 0.272E-04 0.228E-04
   0.148E+03 0.264E+03 0.193E+03   -.151E+03 -.269E+03 -.197E+03   0.341E+01 0.484E+01 0.410E+01   -.141E-04 -.354E-05 -.904E-05
   0.241E+03 0.223E+03 0.144E+03   -.243E+03 -.224E+03 -.144E+03   0.159E+01 0.114E+01 0.827E+00   -.348E-04 -.210E-04 -.144E-04
   0.337E+03 0.954E+02 0.342E+01   -.339E+03 -.959E+02 -.360E+01   0.194E+01 0.507E+00 0.163E+00   -.289E-04 -.253E-04 0.253E-05
   0.494E+02 0.848E+02 -.668E+02   -.525E+02 -.881E+02 0.693E+02   0.381E+01 0.399E+01 -.302E+01   0.949E-05 -.104E-05 0.731E-06
   -.431E+02 0.698E+02 -.762E+02   0.454E+02 -.735E+02 0.805E+02   -.254E+01 0.363E+01 -.423E+01   -.633E-07 -.697E-05 0.228E-05
   -.998E+02 0.276E+02 -.484E+02   0.106E+03 -.274E+02 0.497E+02   -.588E+01 -.291E+00 -.123E+01   0.110E-04 -.667E-05 0.492E-05
   -.407E+02 0.149E+03 0.162E+02   0.425E+02 -.157E+03 -.129E+02   -.179E+01 0.756E+01 -.334E+01   -.343E-05 0.927E-05 -.140E-05
   0.101E+03 -.226E+02 -.517E+02   -.107E+03 0.222E+02 0.529E+02   0.582E+01 0.408E+00 -.120E+01   -.989E-05 0.597E-05 0.720E-05
   0.810E+02 0.672E+02 -.308E+02   -.870E+02 -.673E+02 0.294E+02   0.598E+01 0.515E-01 0.144E+01   0.694E-05 -.228E-05 0.451E-05
   0.266E+02 -.663E+02 0.813E+02   -.282E+02 0.701E+02 -.858E+02   0.154E+01 -.371E+01 0.448E+01   -.305E-05 0.148E-04 -.192E-04
   0.592E+01 -.110E+03 0.887E+01   -.588E+01 0.116E+03 -.779E+01   -.330E-01 -.588E+01 -.107E+01   -.257E-07 0.186E-04 -.550E-05
   -.142E+02 -.101E+03 -.343E+02   0.157E+02 0.103E+03 0.397E+02   -.154E+01 -.210E+01 -.539E+01   -.445E-06 0.894E-06 0.308E-05
   -.101E+03 0.257E+02 0.116E+03   0.108E+03 -.235E+02 -.121E+03   -.651E+01 -.229E+01 0.485E+01   -.501E-05 0.233E-05 0.456E-05
   -.916E+02 0.384E+02 -.535E+02   0.949E+02 -.416E+02 0.572E+02   -.332E+01 0.323E+01 -.375E+01   0.832E-05 -.234E-05 0.184E-05
   -.660E+02 -.714E+02 0.547E+02   0.685E+02 0.757E+02 -.582E+02   -.246E+01 -.428E+01 0.346E+01   0.105E-04 0.500E-05 -.374E-05
   0.175E+02 0.710E+02 0.885E+02   -.175E+02 -.769E+02 -.892E+02   0.509E-01 0.596E+01 0.729E+00   -.705E-06 -.792E-05 -.188E-05
   0.424E+01 0.903E+02 0.775E+02   -.659E+00 -.933E+02 -.813E+02   -.358E+01 0.300E+01 0.376E+01   -.330E-05 -.210E-05 -.387E-05
   0.603E+02 0.770E+02 0.572E+02   -.626E+02 -.813E+02 -.607E+02   0.229E+01 0.426E+01 0.356E+01   -.984E-05 -.761E-05 -.525E-05
   -.105E+03 -.197E+02 -.447E+01   0.111E+03 0.207E+02 0.494E+01   -.594E+01 -.954E+00 -.464E+00   0.123E-04 0.594E-05 -.279E-05
   -.837E+02 -.641E+02 -.381E+02   0.896E+02 0.644E+02 0.368E+02   -.587E+01 -.259E+00 0.130E+01   -.265E-05 -.121E-05 0.116E-05
   0.286E+02 0.211E+02 0.104E+03   -.301E+02 -.236E+02 -.109E+03   0.153E+01 0.241E+01 0.525E+01   -.389E-05 -.171E-05 -.209E-04
   -.453E+02 -.784E+02 -.699E+02   0.489E+02 0.822E+02 0.729E+02   -.357E+01 -.374E+01 -.304E+01   -.102E-05 0.124E-04 0.105E-04
   0.947E+02 -.332E+02 -.542E+02   -.981E+02 0.363E+02 0.579E+02   0.345E+01 -.312E+01 -.371E+01   -.814E-05 0.301E-07 0.486E-05
   0.105E+03 0.252E+02 -.234E+01   -.111E+03 -.263E+02 0.263E+01   0.591E+01 0.108E+01 -.303E+00   -.101E-04 -.811E-05 0.107E-05
   -.229E+02 -.759E+02 0.739E+02   0.194E+02 0.791E+02 -.777E+02   0.346E+01 -.319E+01 0.380E+01   0.655E-05 0.129E-06 -.240E-05
   0.432E+02 -.659E+02 -.804E+02   -.457E+02 0.693E+02 0.847E+02   0.248E+01 -.342E+01 -.430E+01   -.625E-05 0.123E-04 0.122E-04
   0.308E+02 -.139E+03 0.222E+03   -.260E+02 0.127E+03 -.208E+03   -.479E+01 0.119E+02 -.145E+02   0.176E-05 -.460E-05 0.119E-04
   0.232E+03 0.162E+03 0.628E+02   -.213E+03 -.159E+03 -.644E+02   -.194E+02 -.338E+01 0.167E+01   -.196E-05 -.355E-05 -.102E-04
   -.421E+02 0.231E+03 -.157E+03   0.329E+02 -.217E+03 0.142E+03   0.882E+01 -.139E+02 0.155E+02   -.420E-05 -.176E-04 0.158E-04
   0.388E+02 -.197E+03 -.196E+03   -.314E+02 0.188E+03 0.184E+03   -.749E+01 0.916E+01 0.124E+02   0.146E-04 0.101E-04 0.823E-05
   -.253E+03 -.962E+02 0.681E+02   0.232E+03 0.939E+02 -.703E+02   0.210E+02 0.226E+01 0.207E+01   0.822E-06 -.676E-06 -.153E-04
   -.123E+03 0.404E+03 0.423E+03   0.832E+02 -.386E+03 -.426E+03   0.397E+02 -.174E+02 0.269E+01   -.232E-04 0.268E-04 0.687E-05
   -.740E+02 0.127E+03 0.231E+03   0.723E+02 -.124E+03 -.228E+03   0.178E+01 -.351E+01 -.353E+01   0.261E-04 -.166E-04 0.330E-05
 -----------------------------------------------------------------------------------------------
   -.344E+02 0.265E+02 -.928E+01   -.341E-12 0.369E-12 -.426E-12   0.345E+02 -.265E+02 0.928E+01   -.309E-04 0.159E-04 0.260E-04
 
 
 POSITION                                       TOTAL-FORCE (eV/Angst)
 -----------------------------------------------------------------------------------
     10.46158      6.59100     13.49490        -0.053224      0.252117     -0.263392
      8.75875     11.31222      6.55140        -0.000952     -0.006188      0.004811
      9.11624     10.48468      7.61029         0.001092     -0.055148      0.010964
      9.47459     12.30603      8.99730         0.014290      0.010987      0.040911
      9.11904     13.19266      7.98704         0.004306      0.001082      0.007684
      8.75715     12.69444      6.73519         0.001911     -0.003595      0.006606
      5.86694      9.53439     11.36602         0.002024      0.009099      0.011277
      9.94203      7.43809     12.52376         0.528649     -0.510679      0.675940
     12.04547      8.38666     12.11872         0.315934      0.088479      0.003228
     12.61928      7.55238     13.08448        -0.141626     -0.065227      0.022060
     14.79299     10.57118     10.69264         0.046998      0.017797     -0.006613
     14.01643     11.32257      9.80881         0.058585     -0.037253      0.050926
     12.65158     11.07272      9.73048        -0.120011     -0.043391      0.019625
     12.79043      9.38554     11.34657         0.008372     -0.011560      0.012245
     14.16878      9.59490     11.46294         0.007288     -0.051324      0.055935
     11.82695      6.64488     13.78060        -0.700429      0.034816     -0.202650
      7.24231      9.77330     11.28348        -0.004432      0.003842     -0.013850
      8.15819     12.44233     13.81164         0.017490     -0.004638     -0.013211
      9.52399     12.52132     13.53212         0.003907      0.010425      0.015899
     10.05904     11.71816     12.53361         0.002112     -0.019041     -0.025921
      7.96508     10.76003     12.08522         0.018099      0.002069     -0.017367
      7.38092     11.55121     13.07965        -0.011680     -0.004126     -0.002047
      7.45796      8.11597      9.64469         0.033720     -0.010591     -0.010102
      6.09730      7.83470      9.68863        -0.018343     -0.006593      0.003501
      5.28440      8.55710     10.56432         0.011482     -0.008238     -0.010783
      9.79795      5.90212     14.01497         0.727412      0.726685     -0.541340
     12.26685      5.99367     14.53463        -0.175328     -0.057755      0.014604
     13.68484      7.61538     13.29576        -0.041096     -0.058196      0.051047
     10.84507      7.24677      9.22597        -0.004812     -0.008783     -0.076787
      6.31582     11.46138     13.28407        -0.001976      0.008584     -0.001814
      8.88327      7.42377     12.27295         0.004911     -0.128330      0.125077
      8.47853     13.36665      5.92453        -0.003131      0.004959     -0.001086
      9.12855     14.26265      8.19005         0.004133     -0.001006      0.002932
      9.76183     12.67176      9.98145        -0.001395      0.015035     -0.004914
     11.38256      8.36174      8.29610        -0.002010     -0.008187     -0.049498
     14.75349      8.99278     12.15530         0.039652      0.009669     -0.000273
     14.45552     12.09620      9.18096         0.010568      0.004702     -0.007030
      9.11405      9.40258      7.49376        -0.011565     -0.000773     -0.015359
      8.12287      7.57771      8.97051        -0.004085     -0.003512     -0.016786
      5.68876      7.06123      9.04041        -0.000957     -0.004404     -0.004750
     15.86530     10.74076     10.77851        -0.000241     -0.001652      0.004114
     11.11794     11.75383     12.28812         0.005520      0.017980      0.002047
      8.48240     10.86572      5.59722        -0.004200     -0.002928      0.006205
     10.17895     13.19691     14.08003         0.001384      0.005317     -0.001371
      5.25320     10.11370     12.05309        -0.004190      0.000301     -0.003871
      4.21445      8.36275     10.62101        -0.005900      0.000264     -0.003579
     12.01813     11.63958      9.05085        -0.003803     -0.004601      0.001253
      7.70887     13.05934     14.58823        -0.003278      0.008364      0.005390
      9.48490     10.95884      8.82805        -0.000083      0.021994      0.015934
      8.03610      9.06122     10.42169        -0.086031     -0.031306      0.017333
     10.70414      8.32170     11.83465        -0.383635     -0.132348      0.056534
      9.30896     10.85100     11.80824        -0.082603      0.108697      0.112627
     12.02768     10.13012     10.47953        -0.096300      0.017530     -0.047528
     10.61480      8.11252      8.84309         0.008341      0.030235      0.059186
     10.01771      9.61740     10.38685         0.089135     -0.129655     -0.073974
 -----------------------------------------------------------------------------------
    total drift:                                0.006479     -0.003607      0.003032


--------------------------------------------------------------------------------------------------------



  FREE ENERGIE OF THE ION-ELECTRON SYSTEM (eV)
  ---------------------------------------------------
  free  energy   TOTEN  =      -377.44162336 eV

  energy  without entropy=     -377.44162336  energy(sigma->0) =     -377.44162336
 


--------------------------------------------------------------------------------------------------------


    POTLOK:  cpu time    7.45: real time    7.64


--------------------------------------------------------------------------------------------------------


 writing wavefunctions
     LOOP+:  cpu time 1032.05: real time 1072.54
    4ORBIT:  cpu time    0.00: real time    0.00

 total amount of memory used by VASP on root node   877132. kBytes
========================================================================

   base      :      30000. kBytes
   nonlr-proj:      19361. kBytes
   fftplans  :     269516. kBytes
   grid      :     534988. kBytes
   one-center:       1710. kBytes
   wavefun   :      21557. kBytes
 
  
  
 General timing and accounting informations for this job:
 ========================================================
  
                  Total CPU time used (sec):     1283.669
                            User time (sec):     1137.716
                          System time (sec):      145.953
                         Elapsed time (sec):     1328.072
  
                   Maximum memory used (kb):     1490076.
                   Average memory used (kb):           0.
  
                          Minor page faults:      7039521
                          Major page faults:            1
                 Voluntary context switches:       283682
