<?xml version="1.0" encoding="ISO-8859-1"?>
<modeling>
 <generator>
  <i name="program" type="string">vasp </i>
  <i name="version" type="string">5.3.5  </i>
  <i name="subversion" type="string">31Mar14 (build Apr 08 2014 12:00:03) complex                          parallel </i>
  <i name="platform" type="string">NSC-NSCPATCH-BUILD02 </i>
  <i name="date" type="string">2017 03 15 </i>
  <i name="time" type="string">18:38:23 </i>
 </generator>
 <incar>
  <i type="string" name="SYSTEM"> c2_oh2_ruthenium_mol</i>
  <i type="int" name="ISTART">     0</i>
  <i type="string" name="PREC">accurate</i>
  <i type="int" name="IALGO">    38</i>
  <i type="logical" name="ADDGRID"> T  </i>
  <i type="int" name="ISPIN">     2</i>
  <i name="BMIX">      2.00000000</i>
  <i type="int" name="ICHARG">     2</i>
  <i name="EDIFF">      0.00001000</i>
  <i name="EDIFFG">     -0.01000000</i>
  <i name="ENCUT">    700.00000000</i>
  <i name="POTIM">      0.50000000</i>
  <i name="NUPDOWN">      0.00000000</i>
  <i name="NELECT">    166.00000000</i>
  <i type="string" name="LREAL"> Auto</i>
  <i name="TIME">      0.05000000</i>
  <i type="int" name="ISMEAR">     0</i>
  <i name="SIGMA">      0.01000000</i>
  <i type="int" name="ICORELEVEL">     2</i>
  <i type="int" name="CLNT">     1</i>
  <i type="int" name="CLN">     1</i>
  <i type="int" name="INCAR     ">     0</i>
  <i name="CLZ">      0.50000000</i>
 </incar>
 <kpoints>
  <generation param="Monkhorst-Pack">
   <v type="int" name="divisions">       1        1        1 </v>
   <v name="usershift">      0.00000000       0.00000000       0.00000000 </v>
   <v name="genvec1">      1.00000000       0.00000000       0.00000000 </v>
   <v name="genvec2">      0.00000000       1.00000000       0.00000000 </v>
   <v name="genvec3">      0.00000000       0.00000000       1.00000000 </v>
   <v name="shift">      0.00000000       0.00000000       0.00000000 </v>
  </generation>
  <varray name="kpointlist" >
   <v>       0.00000000       0.00000000       0.00000000 </v>
  </varray>
  <varray name="weights" >
   <v>       1.00000000 </v>
  </varray>
 </kpoints>
 <parameters>
  <separator name="general" >
   <i type="string" name="SYSTEM">c2_oh2_ruthenium_mol</i>
   <i type="logical" name="LCOMPAT"> F  </i>
  </separator>
  <separator name="electronic" >
   <i type="string" name="PREC">accura</i>
   <i name="ENMAX">    700.00000000</i>
   <i name="ENAUG">    946.76800000</i>
   <i name="EDIFF">      0.00001000</i>
   <i type="int" name="IALGO">    38</i>
   <i type="int" name="IWAVPR">    10</i>
   <i type="int" name="NBANDS">   128</i>
   <i name="NELECT">    166.00000000</i>
   <i type="int" name="TURBO">     0</i>
   <i type="int" name="IRESTART">     0</i>
   <i type="int" name="NREBOOT">     0</i>
   <i type="int" name="NMIN">     0</i>
   <i name="EREF">      0.00000000</i>
   <separator name="electronic smearing" >
    <i type="int" name="ISMEAR">     0</i>
    <i name="SIGMA">      0.01000000</i>
    <i name="KSPACING">      0.50000000</i>
    <i type="logical" name="KGAMMA"> T  </i>
   </separator>
   <separator name="electronic projectors" >
    <i type="logical" name="LREAL"> T  </i>
    <v name="ROPT">     -0.00025000     -0.00025000     -0.00025000     -0.00025000     -0.00025000     -0.00025000</v>
    <i type="int" name="LMAXPAW">  -100</i>
    <i type="int" name="LMAXMIX">     2</i>
    <i type="logical" name="NLSPLINE"> F  </i>
   </separator>
   <separator name="electronic startup" >
    <i type="int" name="ISTART">     0</i>
    <i type="int" name="ICHARG">     2</i>
    <i type="int" name="INIWAV">     1</i>
   </separator>
   <separator name="electronic spin" >
    <i type="int" name="ISPIN">     2</i>
    <i type="logical" name="LNONCOLLINEAR"> F  </i>
    <v name="MAGMOM">      0.00000000      0.00000000      0.00000000      0.00000000      0.00000000      0.00000000      0.00000000      0.00000000      0.00000000      0.00000000      0.00000000      0.00000000      0.00000000      0.00000000      0.00000000      0.00000000      0.00000000      0.00000000      0.00000000      0.00000000
      0.00000000      0.00000000      0.00000000      0.00000000      0.00000000      0.00000000      0.00000000      0.00000000      0.00000000      0.00000000      0.00000000      0.00000000      0.00000000      0.00000000      0.00000000      0.00000000      0.00000000      0.00000000      0.00000000      0.00000000
      0.00000000      0.00000000      0.00000000      0.00000000      0.00000000      0.00000000      0.00000000      0.00000000      0.00000000      0.00000000      0.00000000      0.00000000      0.00000000      0.00000000      0.00000000</v>
    <i name="NUPDOWN">      0.00000000</i>
    <i type="logical" name="LSORBIT"> F  </i>
    <v name="SAXIS">      0.00000000      0.00000000      1.00000000</v>
    <i type="logical" name="LSPIRAL"> F  </i>
    <v name="QSPIRAL">      0.00000000      0.00000000      0.00000000</v>
    <i type="logical" name="LZEROZ"> F  </i>
   </separator>
   <separator name="electronic exchange-correlation" >
    <i type="logical" name="LASPH"> F  </i>
    <i type="logical" name="LMETAGGA"> F  </i>
   </separator>
   <separator name="electronic convergence" >
    <i type="int" name="NELM">    60</i>
    <i type="int" name="NELMDL">    -5</i>
    <i type="int" name="NELMIN">     2</i>
    <i name="ENINI">    700.00000000</i>
    <separator name="electronic convergence detail" >
     <i type="logical" name="LDIAG"> T  </i>
     <i type="logical" name="LSUBROT"> F  </i>
     <i name="WEIMIN">      0.00000000</i>
     <i name="EBREAK">      0.00000002</i>
     <i name="DEPER">      0.30000000</i>
     <i type="int" name="NRMM">     4</i>
     <i name="TIME">      0.05000000</i>
    </separator>
   </separator>
   <separator name="electronic mixer" >
    <i name="AMIX">      0.40000000</i>
    <i name="BMIX">      2.00000000</i>
    <i name="AMIN">      0.10000000</i>
    <i name="AMIX_MAG">      1.60000000</i>
    <i name="BMIX_MAG">      2.00000000</i>
    <separator name="electronic mixer details" >
     <i type="int" name="IMIX">     4</i>
     <i type="int" name="MAXMIX">   -45</i>
     <i name="WC">    100.00000000</i>
     <i type="int" name="INIMIX">     1</i>
     <i type="int" name="MIXPRE">     1</i>
     <i type="int" name="MREMOVE">     5</i>
    </separator>
   </separator>
   <separator name="electronic dipolcorrection" >
    <i type="logical" name="LDIPOL"> F  </i>
    <i type="logical" name="LMONO"> F  </i>
    <i type="int" name="IDIPOL">     0</i>
    <i name="EPSILON">      1.00000000</i>
    <v name="DIPOL">   -100.00000000   -100.00000000   -100.00000000</v>
    <i name="EFIELD">      0.00000000</i>
   </separator>
  </separator>
  <separator name="grids" >
   <i type="int" name="NGX">   180</i>
   <i type="int" name="NGY">   180</i>
   <i type="int" name="NGZ">   180</i>
   <i type="int" name="NGXF">   360</i>
   <i type="int" name="NGYF">   360</i>
   <i type="int" name="NGZF">   360</i>
   <i type="logical" name="ADDGRID"> T  </i>
  </separator>
  <separator name="ionic" >
   <i type="int" name="NSW">     0</i>
   <i type="int" name="IBRION">    -1</i>
   <i type="int" name="ISIF">     2</i>
   <i name="PSTRESS">      0.00000000</i>
   <i name="EDIFFG">     -0.01000000</i>
   <i type="int" name="NFREE">     0</i>
   <i name="POTIM">      0.50000000</i>
   <i name="SMASS">     -3.00000000</i>
   <i name="SCALEE">      1.00000000</i>
  </separator>
  <separator name="ionic md" >
   <i name="TEBEG">      0.00010000</i>
   <i name="TEEND">      0.00010000</i>
   <i type="int" name="NBLOCK">     1</i>
   <i type="int" name="KBLOCK">     1</i>
   <i type="int" name="NPACO">   256</i>
   <i name="APACO">     16.00000000</i>
  </separator>
  <separator name="symmetry" >
   <i type="int" name="ISYM">     2</i>
   <i name="SYMPREC">      0.00001000</i>
  </separator>
  <separator name="dos" >
   <i type="logical" name="LORBIT"> F  </i>
   <v name="RWIGS">     -1.00000000     -1.00000000     -1.00000000     -1.00000000     -1.00000000     -1.00000000</v>
   <i type="int" name="NEDOS">   301</i>
   <i name="EMIN">     10.00000000</i>
   <i name="EMAX">    -10.00000000</i>
   <i name="EFERMI">      0.00000000</i>
  </separator>
  <separator name="writing" >
   <i type="int" name="NWRITE">     2</i>
   <i type="logical" name="LWAVE"> T  </i>
   <i type="logical" name="LCHARG"> T  </i>
   <i type="logical" name="LPARD"> F  </i>
   <i type="logical" name="LVTOT"> F  </i>
   <i type="logical" name="LVHAR"> F  </i>
   <i type="logical" name="LELF"> F  </i>
   <i type="logical" name="LOPTICS"> F  </i>
   <v name="STM">      0.00000000      0.00000000      0.00000000      0.00000000      0.00000000      0.00000000      0.00000000</v>
  </separator>
  <separator name="performance" >
   <i type="int" name="NPAR">    64</i>
   <i type="int" name="NSIM">     4</i>
   <i type="int" name="NBLK">    -1</i>
   <i type="logical" name="LPLANE"> T  </i>
   <i type="logical" name="LSCALAPACK"> T  </i>
   <i type="logical" name="LSCAAWARE"> F  </i>
   <i type="logical" name="LSCALU"> F  </i>
   <i type="logical" name="LASYNC"> F  </i>
   <i type="logical" name="LORBITALREAL"> F  </i>
  </separator>
  <separator name="miscellaneous" >
   <i type="int" name="IDIOT">     3</i>
   <i type="logical" name="LMUSIC"> F  </i>
   <v name="POMASS">     12.01100000     12.01100000      1.00000000     14.00100000     16.00000000    101.07000000</v>
   <v name="DARWINR">      0.00000000      0.00000000      0.00000000      0.00000000      0.00000000      0.00000000</v>
   <v name="DARWINV">      1.00000000      1.00000000      1.00000000      1.00000000      1.00000000      1.00000000</v>
   <i type="logical" name="LCORR"> T  </i>
  </separator>
  <i type="logical" name="GGA_COMPAT"> T  </i>
  <i type="logical" name="LBERRY"> F  </i>
  <i type="int" name="ICORELEVEL">     2</i>
  <i type="int" name="CLNT">     1</i>
  <i type="int" name="CLN">     1</i>
  <i type="int" name="CLL">     0</i>
  <i name="CLZ">      0.50000000</i>
  <i type="logical" name="LDAU"> F  </i>
  <i type="int" name="I_CONSTRAINED_M">     0</i>
  <separator name="electronic exchange-correlation" >
   <i type="string" name="GGA">--</i>
   <i type="int" name="VOSKOWN">     0</i>
   <i type="logical" name="LHFCALC"> F  </i>
   <i type="string" name="PRECFOCK"></i>
   <i type="logical" name="LSYMGRAD"> F  </i>
   <i type="logical" name="LHFONE"> F  </i>
   <i type="logical" name="LRHFCALC"> F  </i>
   <i type="logical" name="LTHOMAS"> F  </i>
   <i type="logical" name="LMODELHF"> F  </i>
   <i name="ENCUT4O">     -1.00000000</i>
   <i type="int" name="EXXOEP">     0</i>
   <i type="int" name="FOURORBIT">     0</i>
   <i name="AEXX">      0.00000000</i>
   <i name="HFALPHA">      0.00000000</i>
   <i name="MCALPHA">      0.00000000</i>
   <i name="ALDAX">      1.00000000</i>
   <i name="AGGAX">      1.00000000</i>
   <i name="ALDAC">      1.00000000</i>
   <i name="AGGAC">      1.00000000</i>
   <i type="int" name="NKREDX">     1</i>
   <i type="int" name="NKREDY">     1</i>
   <i type="int" name="NKREDZ">     1</i>
   <i type="logical" name="SHIFTRED"> F  </i>
   <i type="logical" name="ODDONLY"> F  </i>
   <i type="logical" name="EVENONLY"> F  </i>
   <i type="int" name="LMAXFOCK">     0</i>
   <i type="int" name="NMAXFOCKAE">     0</i>
   <i type="logical" name="LFOCKAEDFT"> F  </i>
   <i name="HFSCREEN">      0.00000000</i>
   <i name="HFSCREENC">      0.00000000</i>
   <i type="int" name="NBANDSGWLOW">     0</i>
  </separator>
  <separator name="vdW DFT" >
   <i type="logical" name="LUSE_VDW"> F  </i>
   <i name="Zab_VDW">     -0.84910000</i>
   <i name="PARAM1">      0.12340000</i>
   <i name="PARAM2">      1.00000000</i>
   <i name="PARAM3">      0.00000000</i>
  </separator>
  <separator name="model GW" >
   <i type="int" name="MODEL_GW">     0</i>
   <i name="MODEL_EPS0">     87.27272727</i>
   <i name="MODEL_ALPHA">      1.00000000</i>
  </separator>
  <separator name="linear response parameters" >
   <i type="logical" name="LEPSILON"> F  </i>
   <i type="logical" name="LRPA"> F  </i>
   <i type="logical" name="LNABLA"> F  </i>
   <i type="logical" name="LVEL"> F  </i>
   <i type="int" name="KINTER">     0</i>
   <i name="CSHIFT">      0.10000000</i>
   <i name="OMEGAMAX">     -1.00000000</i>
   <i name="DEG_THRESHOLD">      0.00200000</i>
  </separator>
  <separator name="orbital magnetization" >
   <i type="logical" name="NUCIND"> F  </i>
   <v name="MAGPOS">      0.00000000      0.00000000      0.00000000</v>
   <i type="logical" name="LNICSALL"> T  </i>
   <i type="logical" name="ORBITALMAG"> F  </i>
   <i type="logical" name="LMAGBLOCH"> F  </i>
   <i type="logical" name="LCHIMAG"> F  </i>
   <i type="logical" name="LGAUGE"> T  </i>
   <i type="int" name="MAGATOM">     0</i>
   <v name="MAGDIPOL">      0.00000000      0.00000000      0.00000000</v>
   <v name="AVECCONST">      0.00000000      0.00000000      0.00000000</v>
  </separator>
  <separator name="response functions" >
   <i type="logical" name="LADDER"> F  </i>
   <i type="logical" name="LFXC"> F  </i>
   <i type="logical" name="LHARTREE"> T  </i>
   <i type="int" name="IBSE">     0</i>
   <i type="logical" name="LTCTE"> F  </i>
   <i type="logical" name="LTETE"> F  </i>
   <i type="logical" name="LTRIPLET"> F  </i>
   <i type="logical" name="LFXCEPS"> F  </i>
   <i type="logical" name="LFXHEG"> F  </i>
   <i type="logical" name="L2ORDER"> F  </i>
   <i type="logical" name="LUSEW"> F  </i>
   <i name="ENCUTGW">     -2.00000000</i>
   <i name="ENCUTGWSOFT">     -2.00000000</i>
   <i name="ENCUTLF">     -1.00000000</i>
   <i type="int" name="LMAXMP2">    -1</i>
   <i name="SCISSOR">      0.00000000</i>
   <i type="int" name="NOMEGA">     0</i>
   <i type="int" name="NOMEGAR">     0</i>
   <i type="int" name="NBANDSGW">    -1</i>
   <i type="int" name="NBANDSO">    -1</i>
   <i type="int" name="NBANDSV">    -1</i>
   <i type="int" name="NELM">     1</i>
   <i type="int" name="DIM">     3</i>
   <i type="int" name="ANTIRES">     0</i>
   <i name="OMEGAMAX">    -30.00000000</i>
   <i name="OMEGAMIN">    -30.00000000</i>
   <i name="OMEGATL">   -200.00000000</i>
   <i type="int" name="OMEGAGRID">     0</i>
   <i name="CSHIFT">     -0.10000000</i>
   <i type="logical" name="SELFENERGY"> F  </i>
   <i type="logical" name="LSPECTRAL"> F  </i>
   <i type="logical" name="ODDONLYGW"> F  </i>
   <i type="logical" name="EVENONLYGW"> F  </i>
   <i type="int" name="NKREDLFX">     1</i>
   <i type="int" name="NKREDLFY">     1</i>
   <i type="int" name="NKREDLFZ">     1</i>
   <i type="int" name="MAXMEM">  1800</i>
   <i type="int" name="TELESCOPE">     0</i>
   <i type="int" name="TAUPAR">     1</i>
  </separator>
  <separator name="External order field" >
   <i name="OFIELD_KAPPA">      0.00000000</i>
   <v name="OFIELD_K">      0.00000000      0.00000000      0.00000000</v>
   <i name="OFIELD_Q6_NEAR">      0.00000000</i>
   <i name="OFIELD_Q6_FAR">      0.00000000</i>
   <i name="OFIELD_A">      0.00000000</i>
  </separator>
 </parameters>
 <atominfo>
  <atoms>      55 </atoms>
  <types>       6 </types>
  <array name="atoms" >
   <dimension dim="1">ion</dimension>
   <field type="string">element</field>
   <field type="int">atomtype</field>
   <set>
    <rc><c>C </c><c>   1</c></rc>
    <rc><c>C </c><c>   2</c></rc>
    <rc><c>C </c><c>   2</c></rc>
    <rc><c>C </c><c>   2</c></rc>
    <rc><c>C </c><c>   2</c></rc>
    <rc><c>C </c><c>   2</c></rc>
    <rc><c>C </c><c>   2</c></rc>
    <rc><c>C </c><c>   2</c></rc>
    <rc><c>C </c><c>   2</c></rc>
    <rc><c>C </c><c>   2</c></rc>
    <rc><c>C </c><c>   2</c></rc>
    <rc><c>C </c><c>   2</c></rc>
    <rc><c>C </c><c>   2</c></rc>
    <rc><c>C </c><c>   2</c></rc>
    <rc><c>C </c><c>   2</c></rc>
    <rc><c>C </c><c>   2</c></rc>
    <rc><c>C </c><c>   2</c></rc>
    <rc><c>C </c><c>   2</c></rc>
    <rc><c>C </c><c>   2</c></rc>
    <rc><c>C </c><c>   2</c></rc>
    <rc><c>C </c><c>   2</c></rc>
    <rc><c>C </c><c>   2</c></rc>
    <rc><c>C </c><c>   2</c></rc>
    <rc><c>C </c><c>   2</c></rc>
    <rc><c>C </c><c>   2</c></rc>
    <rc><c>H </c><c>   3</c></rc>
    <rc><c>H </c><c>   3</c></rc>
    <rc><c>H </c><c>   3</c></rc>
    <rc><c>H </c><c>   3</c></rc>
    <rc><c>H </c><c>   3</c></rc>
    <rc><c>H </c><c>   3</c></rc>
    <rc><c>H </c><c>   3</c></rc>
    <rc><c>H </c><c>   3</c></rc>
    <rc><c>H </c><c>   3</c></rc>
    <rc><c>H </c><c>   3</c></rc>
    <rc><c>H </c><c>   3</c></rc>
    <rc><c>H </c><c>   3</c></rc>
    <rc><c>H </c><c>   3</c></rc>
    <rc><c>H </c><c>   3</c></rc>
    <rc><c>H </c><c>   3</c></rc>
    <rc><c>H </c><c>   3</c></rc>
    <rc><c>H </c><c>   3</c></rc>
    <rc><c>H </c><c>   3</c></rc>
    <rc><c>H </c><c>   3</c></rc>
    <rc><c>H </c><c>   3</c></rc>
    <rc><c>H </c><c>   3</c></rc>
    <rc><c>H </c><c>   3</c></rc>
    <rc><c>H </c><c>   3</c></rc>
    <rc><c>N </c><c>   4</c></rc>
    <rc><c>N </c><c>   4</c></rc>
    <rc><c>N </c><c>   4</c></rc>
    <rc><c>N </c><c>   4</c></rc>
    <rc><c>N </c><c>   4</c></rc>
    <rc><c>O </c><c>   5</c></rc>
    <rc><c>Ru</c><c>   6</c></rc>
   </set>
  </array>
  <array name="atomtypes" >
   <dimension dim="1">type</dimension>
   <field type="int">atomspertype</field>
   <field type="string">element</field>
   <field>mass</field>
   <field>valence</field>
   <field type="string">pseudopotential</field>
   <set>
    <rc><c>   1</c><c>C </c><c>     12.01100000</c><c>      4.50000000</c><c>  PAW_PBE C_h 06Feb2004                 </c></rc>
    <rc><c>  24</c><c>C </c><c>     12.01100000</c><c>      4.00000000</c><c>  PAW_PBE C_h 06Feb2004                 </c></rc>
    <rc><c>  23</c><c>H </c><c>      1.00000000</c><c>      1.00000000</c><c>  PAW_PBE H 15Jun2001                   </c></rc>
    <rc><c>   5</c><c>N </c><c>     14.00100000</c><c>      5.00000000</c><c>  PAW_PBE N_h 06Feb2004                 </c></rc>
    <rc><c>   1</c><c>O </c><c>     16.00000000</c><c>      6.00000000</c><c>  PAW_PBE O_h 06Feb2004                 </c></rc>
    <rc><c>   1</c><c>Ru</c><c>    101.07000000</c><c>     14.00000000</c><c>  PAW_PBE Ru_pv 28Jan2005               </c></rc>
   </set>
  </array>
 </atominfo>
 <structure name="initialpos" >
  <crystal>
   <varray name="basis" >
    <v>      20.00000000       0.00000000       0.00000000 </v>
    <v>       0.00000000      20.00000000       0.00000000 </v>
    <v>       0.00000000       0.00000000      20.00000000 </v>
   </varray>
   <i name="volume">   8000.00000000 </i>
   <varray name="rec_basis" >
    <v>       0.05000000       0.00000000       0.00000000 </v>
    <v>       0.00000000       0.05000000       0.00000000 </v>
    <v>       0.00000000       0.00000000       0.05000000 </v>
   </varray>
  </crystal>
  <varray name="positions" >
   <v>       0.52307882       0.32955005       0.67474498 </v>
   <v>       0.43793752       0.56561110       0.32757008 </v>
   <v>       0.45581208       0.52423376       0.38051465 </v>
   <v>       0.47372925       0.61530131       0.44986522 </v>
   <v>       0.45595175       0.65963312       0.39935201 </v>
   <v>       0.43785737       0.63472201       0.33675972 </v>
   <v>       0.29334713       0.47671938       0.56830116 </v>
   <v>       0.49710163       0.37190466       0.62618823 </v>
   <v>       0.60227374       0.41933300       0.60593616 </v>
   <v>       0.63096398       0.37761922       0.65422416 </v>
   <v>       0.73964927       0.52855915       0.53463181 </v>
   <v>       0.70082162       0.56612858       0.49044049 </v>
   <v>       0.63257913       0.55363620       0.48652424 </v>
   <v>       0.63952130       0.46927713       0.56732841 </v>
   <v>       0.70843899       0.47974495       0.57314689 </v>
   <v>       0.59134754       0.33224398       0.68903016 </v>
   <v>       0.36211554       0.48866484       0.56417415 </v>
   <v>       0.40790931       0.62211625       0.69058213 </v>
   <v>       0.47619960       0.62606623       0.67660612 </v>
   <v>       0.50295190       0.58590820       0.62668073 </v>
   <v>       0.39825425       0.53800137       0.60426081 </v>
   <v>       0.36904589       0.57756069       0.65398228 </v>
   <v>       0.37289802       0.40579857       0.48223443 </v>
   <v>       0.30486503       0.39173492       0.48443166 </v>
   <v>       0.26422003       0.42785518       0.52821594 </v>
   <v>       0.48989745       0.29510618       0.70074864 </v>
   <v>       0.61334240       0.29968355       0.72673159 </v>
   <v>       0.68424189       0.38076917       0.66478776 </v>
   <v>       0.54225374       0.36233861       0.46129841 </v>
   <v>       0.31579090       0.57306911       0.66420366 </v>
   <v>       0.44416348       0.37118871       0.61364770 </v>
   <v>       0.42392665       0.66833230       0.29622671 </v>
   <v>       0.45642762       0.71313270       0.40950260 </v>
   <v>       0.48809132       0.63358802       0.49907234 </v>
   <v>       0.56912778       0.41808713       0.41480476 </v>
   <v>       0.73767440       0.44963919       0.60776512 </v>
   <v>       0.72277620       0.60481012       0.45904817 </v>
   <v>       0.45570253       0.47012894       0.37468790 </v>
   <v>       0.40614333       0.37888556       0.44852541 </v>
   <v>       0.28443799       0.35306162       0.45202062 </v>
   <v>       0.79326502       0.53703787       0.53892527 </v>
   <v>       0.55589708       0.58769132       0.61440612 </v>
   <v>       0.42412006       0.54328620       0.27986105 </v>
   <v>       0.50894741       0.65984570       0.70400156 </v>
   <v>       0.26265982       0.50568523       0.60265428 </v>
   <v>       0.21072272       0.41813760       0.53105039 </v>
   <v>       0.60090654       0.58197914       0.45254259 </v>
   <v>       0.38544357       0.65296704       0.72941133 </v>
   <v>       0.47424490       0.54794204       0.44140236 </v>
   <v>       0.40180479       0.45306079       0.52108436 </v>
   <v>       0.53520702       0.41608490       0.59173240 </v>
   <v>       0.46544808       0.54254992       0.59041194 </v>
   <v>       0.60138410       0.50650621       0.52397638 </v>
   <v>       0.53073984       0.40562607       0.44215451 </v>
   <v>       0.50088568       0.48087016       0.51934246 </v>
  </varray>
  <varray name="selective"  type="logical" >
   <v type="logical" >  T  T  T </v>
   <v type="logical" >  T  T  T </v>
   <v type="logical" >  T  T  T </v>
   <v type="logical" >  T  T  T </v>
   <v type="logical" >  T  T  T </v>
   <v type="logical" >  T  T  T </v>
   <v type="logical" >  T  T  T </v>
   <v type="logical" >  T  T  T </v>
   <v type="logical" >  T  T  T </v>
   <v type="logical" >  T  T  T </v>
   <v type="logical" >  T  T  T </v>
   <v type="logical" >  T  T  T </v>
   <v type="logical" >  T  T  T </v>
   <v type="logical" >  T  T  T </v>
   <v type="logical" >  T  T  T </v>
   <v type="logical" >  T  T  T </v>
   <v type="logical" >  T  T  T </v>
   <v type="logical" >  T  T  T </v>
   <v type="logical" >  T  T  T </v>
   <v type="logical" >  T  T  T </v>
   <v type="logical" >  T  T  T </v>
   <v type="logical" >  T  T  T </v>
   <v type="logical" >  T  T  T </v>
   <v type="logical" >  T  T  T </v>
   <v type="logical" >  T  T  T </v>
   <v type="logical" >  T  T  T </v>
   <v type="logical" >  T  T  T </v>
   <v type="logical" >  T  T  T </v>
   <v type="logical" >  T  T  T </v>
   <v type="logical" >  T  T  T </v>
   <v type="logical" >  T  T  T </v>
   <v type="logical" >  T  T  T </v>
   <v type="logical" >  T  T  T </v>
   <v type="logical" >  T  T  T </v>
   <v type="logical" >  T  T  T </v>
   <v type="logical" >  T  T  T </v>
   <v type="logical" >  T  T  T </v>
   <v type="logical" >  T  T  T </v>
   <v type="logical" >  T  T  T </v>
   <v type="logical" >  T  T  T </v>
   <v type="logical" >  T  T  T </v>
   <v type="logical" >  T  T  T </v>
   <v type="logical" >  T  T  T </v>
   <v type="logical" >  T  T  T </v>
   <v type="logical" >  T  T  T </v>
   <v type="logical" >  T  T  T </v>
   <v type="logical" >  T  T  T </v>
   <v type="logical" >  T  T  T </v>
   <v type="logical" >  T  T  T </v>
   <v type="logical" >  T  T  T </v>
   <v type="logical" >  T  T  T </v>
   <v type="logical" >  T  T  T </v>
   <v type="logical" >  T  T  T </v>
   <v type="logical" >  T  T  T </v>
   <v type="logical" >  T  T  T </v>
  </varray>
  <nose>
   <v>      -3.00000000       0.00000000       0.00010000       0.00010000 </v>
  </nose>
 </structure>
 <calculation>
  <scstep>
   <time name="dav">   14.82   15.76</time>
   <time name="total">   22.53   23.50</time>
   <energy>
    <i name="alphaZ">     12.91687988 </i>
    <i name="ewald">  23273.67921634 </i>
    <i name="hartreedc"> -28875.97803894 </i>
    <i name="XCdc">    400.93261973 </i>
    <i name="pawpsdc">   5890.45591622 </i>
    <i name="pawaedc">  -5710.10246236 </i>
    <i name="eentropy">     -0.00000294 </i>
    <i name="bandstr">  -1676.31874173 </i>
    <i name="atom">   7593.39991119 </i>
    <i name="e_fr_energy">    908.98529740 </i>
    <i name="e_wo_entrp">    908.98530034 </i>
    <i name="e_0_energy">    908.98529887 </i>
   </energy>
  </scstep>
  <scstep>
   <time name="dav">   19.27   20.31</time>
   <time name="total">   19.27   20.32</time>
   <energy>
    <i name="e_fr_energy">    -68.42324360 </i>
    <i name="e_wo_entrp">    -68.42324360 </i>
    <i name="e_0_energy">    -68.42324360 </i>
   </energy>
  </scstep>
  <scstep>
   <time name="dav">   16.08   17.03</time>
   <time name="total">   16.10   17.05</time>
   <energy>
    <i name="e_fr_energy">   -393.23933858 </i>
    <i name="e_wo_entrp">   -393.23933858 </i>
    <i name="e_0_energy">   -393.23933858 </i>
   </energy>
  </scstep>
  <scstep>
   <time name="dav">   12.74   13.43</time>
   <time name="total">   12.75   13.44</time>
   <energy>
    <i name="e_fr_energy">   -412.05718899 </i>
    <i name="e_wo_entrp">   -412.05718899 </i>
    <i name="e_0_energy">   -412.05718899 </i>
   </energy>
  </scstep>
  <scstep>
   <time name="dav">   17.09   18.08</time>
   <time name="total">   22.39   23.39</time>
   <energy>
    <i name="e_fr_energy">   -412.30418996 </i>
    <i name="e_wo_entrp">   -412.30418996 </i>
    <i name="e_0_energy">   -412.30418996 </i>
   </energy>
  </scstep>
  <scstep>
   <time name="dav">   10.91   11.54</time>
   <time name="total">   23.74   24.40</time>
   <energy>
    <i name="e_fr_energy">   -392.80881201 </i>
    <i name="e_wo_entrp">   -392.80881201 </i>
    <i name="e_0_energy">   -392.80881201 </i>
   </energy>
  </scstep>
  <scstep>
   <time name="dav">   14.09   15.32</time>
   <time name="total">   26.82   28.14</time>
   <energy>
    <i name="e_fr_energy">   -382.72303756 </i>
    <i name="e_wo_entrp">   -382.72303756 </i>
    <i name="e_0_energy">   -382.72303756 </i>
   </energy>
  </scstep>
  <scstep>
   <time name="dav">   15.32   16.59</time>
   <time name="total">   28.02   29.35</time>
   <energy>
    <i name="e_fr_energy">   -378.72825441 </i>
    <i name="e_wo_entrp">   -378.72825441 </i>
    <i name="e_0_energy">   -378.72825441 </i>
   </energy>
  </scstep>
  <scstep>
   <time name="dav">   15.03   16.38</time>
   <time name="total">   27.61   29.14</time>
   <energy>
    <i name="e_fr_energy">   -377.68529535 </i>
    <i name="e_wo_entrp">   -377.68529535 </i>
    <i name="e_0_energy">   -377.68529535 </i>
   </energy>
  </scstep>
  <scstep>
   <time name="dav">   15.17   16.45</time>
   <time name="total">   28.01   29.34</time>
   <energy>
    <i name="e_fr_energy">   -377.65030908 </i>
    <i name="e_wo_entrp">   -377.65030908 </i>
    <i name="e_0_energy">   -377.65030908 </i>
   </energy>
  </scstep>
  <scstep>
   <time name="dav">   15.05   16.35</time>
   <time name="total">   27.86   29.20</time>
   <energy>
    <i name="e_fr_energy">   -377.51026127 </i>
    <i name="e_wo_entrp">   -377.51026127 </i>
    <i name="e_0_energy">   -377.51026127 </i>
   </energy>
  </scstep>
  <scstep>
   <time name="dav">   15.21   16.46</time>
   <time name="total">   28.06   29.56</time>
   <energy>
    <i name="e_fr_energy">   -377.43334731 </i>
    <i name="e_wo_entrp">   -377.43334731 </i>
    <i name="e_0_energy">   -377.43334731 </i>
   </energy>
  </scstep>
  <scstep>
   <time name="dav">   15.07   16.36</time>
   <time name="total">   27.92   29.24</time>
   <energy>
    <i name="e_fr_energy">   -377.41722509 </i>
    <i name="e_wo_entrp">   -377.41722509 </i>
    <i name="e_0_energy">   -377.41722509 </i>
   </energy>
  </scstep>
  <scstep>
   <time name="dav">   15.15   16.45</time>
   <time name="total">   28.10   29.44</time>
   <energy>
    <i name="e_fr_energy">   -377.40847715 </i>
    <i name="e_wo_entrp">   -377.40847715 </i>
    <i name="e_0_energy">   -377.40847715 </i>
   </energy>
  </scstep>
  <scstep>
   <time name="dav">   15.06   16.34</time>
   <time name="total">   27.92   29.25</time>
   <energy>
    <i name="e_fr_energy">   -377.41018629 </i>
    <i name="e_wo_entrp">   -377.41018629 </i>
    <i name="e_0_energy">   -377.41018629 </i>
   </energy>
  </scstep>
  <scstep>
   <time name="dav">   15.06   16.35</time>
   <time name="total">   28.28   29.61</time>
   <energy>
    <i name="e_fr_energy">   -377.42151236 </i>
    <i name="e_wo_entrp">   -377.42151236 </i>
    <i name="e_0_energy">   -377.42151236 </i>
   </energy>
  </scstep>
  <scstep>
   <time name="dav">   15.08   16.37</time>
   <time name="total">   27.91   29.23</time>
   <energy>
    <i name="e_fr_energy">   -377.42716011 </i>
    <i name="e_wo_entrp">   -377.42716011 </i>
    <i name="e_0_energy">   -377.42716011 </i>
   </energy>
  </scstep>
  <scstep>
   <time name="dav">   15.09   16.34</time>
   <time name="total">   27.99   29.29</time>
   <energy>
    <i name="e_fr_energy">   -377.43215697 </i>
    <i name="e_wo_entrp">   -377.43215697 </i>
    <i name="e_0_energy">   -377.43215697 </i>
   </energy>
  </scstep>
  <scstep>
   <time name="dav">   15.09   16.35</time>
   <time name="total">   28.04   29.35</time>
   <energy>
    <i name="e_fr_energy">   -377.43553002 </i>
    <i name="e_wo_entrp">   -377.43553002 </i>
    <i name="e_0_energy">   -377.43553002 </i>
   </energy>
  </scstep>
  <scstep>
   <time name="dav">   15.07   16.34</time>
   <time name="total">   27.98   29.39</time>
   <energy>
    <i name="e_fr_energy">   -377.43781171 </i>
    <i name="e_wo_entrp">   -377.43781171 </i>
    <i name="e_0_energy">   -377.43781171 </i>
   </energy>
  </scstep>
  <scstep>
   <time name="dav">   15.01   16.34</time>
   <time name="total">   28.03   29.49</time>
   <energy>
    <i name="e_fr_energy">   -377.43913493 </i>
    <i name="e_wo_entrp">   -377.43913493 </i>
    <i name="e_0_energy">   -377.43913493 </i>
   </energy>
  </scstep>
  <scstep>
   <time name="dav">   13.08   14.27</time>
   <time name="total">   25.85   27.21</time>
   <energy>
    <i name="e_fr_energy">   -377.44015379 </i>
    <i name="e_wo_entrp">   -377.44015379 </i>
    <i name="e_0_energy">   -377.44015379 </i>
   </energy>
  </scstep>
  <scstep>
   <time name="dav">   15.09   16.34</time>
   <time name="total">   28.17   29.44</time>
   <energy>
    <i name="e_fr_energy">   -377.44078414 </i>
    <i name="e_wo_entrp">   -377.44078414 </i>
    <i name="e_0_energy">   -377.44078414 </i>
   </energy>
  </scstep>
  <scstep>
   <time name="dav">   13.30   14.48</time>
   <time name="total">   26.13   27.34</time>
   <energy>
    <i name="e_fr_energy">   -377.44117303 </i>
    <i name="e_wo_entrp">   -377.44117303 </i>
    <i name="e_0_energy">   -377.44117303 </i>
   </energy>
  </scstep>
  <scstep>
   <time name="dav">   13.09   14.27</time>
   <time name="total">   26.12   27.35</time>
   <energy>
    <i name="e_fr_energy">   -377.44137845 </i>
    <i name="e_wo_entrp">   -377.44137845 </i>
    <i name="e_0_energy">   -377.44137845 </i>
   </energy>
  </scstep>
  <scstep>
   <time name="dav">   13.08   14.42</time>
   <time name="total">   25.97   27.38</time>
   <energy>
    <i name="e_fr_energy">   -377.44148443 </i>
    <i name="e_wo_entrp">   -377.44148443 </i>
    <i name="e_0_energy">   -377.44148443 </i>
   </energy>
  </scstep>
  <scstep>
   <time name="dav">   13.21   14.44</time>
   <time name="total">   26.15   27.41</time>
   <energy>
    <i name="e_fr_energy">   -377.44155518 </i>
    <i name="e_wo_entrp">   -377.44155518 </i>
    <i name="e_0_energy">   -377.44155518 </i>
   </energy>
  </scstep>
  <scstep>
   <time name="dav">   13.37   14.58</time>
   <time name="total">   26.09   27.37</time>
   <energy>
    <i name="e_fr_energy">   -377.44158889 </i>
    <i name="e_wo_entrp">   -377.44158889 </i>
    <i name="e_0_energy">   -377.44158889 </i>
   </energy>
  </scstep>
  <scstep>
   <time name="dav">   13.27   14.42</time>
   <time name="total">   26.16   27.35</time>
   <energy>
    <i name="e_fr_energy">   -377.44160529 </i>
    <i name="e_wo_entrp">   -377.44160529 </i>
    <i name="e_0_energy">   -377.44160529 </i>
   </energy>
  </scstep>
  <scstep>
   <time name="dav">   13.10   14.29</time>
   <time name="total">   25.92   27.29</time>
   <energy>
    <i name="e_fr_energy">   -377.44161623 </i>
    <i name="e_wo_entrp">   -377.44161623 </i>
    <i name="e_0_energy">   -377.44161623 </i>
   </energy>
  </scstep>
  <scstep>
   <time name="dav">   13.24   14.43</time>
   <time name="total">   20.84   22.05</time>
   <energy>
    <i name="alphaZ">     12.91687988 </i>
    <i name="ewald">  23273.67921634 </i>
    <i name="hartreedc"> -29117.96397524 </i>
    <i name="XCdc">    424.28696971 </i>
    <i name="pawpsdc">  81162.47145463 </i>
    <i name="pawaedc"> -80989.24782238 </i>
    <i name="eentropy">     -0.00000000 </i>
    <i name="bandstr">  -2736.98425750 </i>
    <i name="atom">   7593.39991119 </i>
    <i name="e_fr_energy">   -377.44162336 </i>
    <i name="e_wo_entrp">   -377.44162336 </i>
    <i name="e_0_energy">   -377.44162336 </i>
   </energy>
  </scstep>
  <structure>
   <crystal>
    <varray name="basis" >
     <v>      20.00000000       0.00000000       0.00000000 </v>
     <v>       0.00000000      20.00000000       0.00000000 </v>
     <v>       0.00000000       0.00000000      20.00000000 </v>
    </varray>
    <i name="volume">   8000.00000000 </i>
    <varray name="rec_basis" >
     <v>       0.05000000       0.00000000       0.00000000 </v>
     <v>       0.00000000       0.05000000       0.00000000 </v>
     <v>       0.00000000       0.00000000       0.05000000 </v>
    </varray>
   </crystal>
   <varray name="positions" >
    <v>       0.52307882       0.32955005       0.67474498 </v>
    <v>       0.43793752       0.56561110       0.32757008 </v>
    <v>       0.45581208       0.52423376       0.38051465 </v>
    <v>       0.47372925       0.61530131       0.44986522 </v>
    <v>       0.45595175       0.65963312       0.39935201 </v>
    <v>       0.43785737       0.63472201       0.33675972 </v>
    <v>       0.29334713       0.47671938       0.56830116 </v>
    <v>       0.49710163       0.37190466       0.62618823 </v>
    <v>       0.60227374       0.41933300       0.60593616 </v>
    <v>       0.63096398       0.37761922       0.65422416 </v>
    <v>       0.73964927       0.52855915       0.53463181 </v>
    <v>       0.70082162       0.56612858       0.49044049 </v>
    <v>       0.63257913       0.55363620       0.48652424 </v>
    <v>       0.63952130       0.46927713       0.56732841 </v>
    <v>       0.70843899       0.47974495       0.57314689 </v>
    <v>       0.59134754       0.33224398       0.68903016 </v>
    <v>       0.36211554       0.48866484       0.56417415 </v>
    <v>       0.40790931       0.62211625       0.69058213 </v>
    <v>       0.47619960       0.62606623       0.67660612 </v>
    <v>       0.50295190       0.58590820       0.62668073 </v>
    <v>       0.39825425       0.53800137       0.60426081 </v>
    <v>       0.36904589       0.57756069       0.65398228 </v>
    <v>       0.37289802       0.40579857       0.48223443 </v>
    <v>       0.30486503       0.39173492       0.48443166 </v>
    <v>       0.26422003       0.42785518       0.52821594 </v>
    <v>       0.48989745       0.29510618       0.70074864 </v>
    <v>       0.61334240       0.29968355       0.72673159 </v>
    <v>       0.68424189       0.38076917       0.66478776 </v>
    <v>       0.54225374       0.36233861       0.46129841 </v>
    <v>       0.31579090       0.57306911       0.66420366 </v>
    <v>       0.44416348       0.37118871       0.61364770 </v>
    <v>       0.42392665       0.66833230       0.29622671 </v>
    <v>       0.45642762       0.71313270       0.40950260 </v>
    <v>       0.48809132       0.63358802       0.49907234 </v>
    <v>       0.56912778       0.41808713       0.41480476 </v>
    <v>       0.73767440       0.44963919       0.60776512 </v>
    <v>       0.72277620       0.60481012       0.45904817 </v>
    <v>       0.45570253       0.47012894       0.37468790 </v>
    <v>       0.40614333       0.37888556       0.44852541 </v>
    <v>       0.28443799       0.35306162       0.45202062 </v>
    <v>       0.79326502       0.53703787       0.53892527 </v>
    <v>       0.55589708       0.58769132       0.61440612 </v>
    <v>       0.42412006       0.54328620       0.27986105 </v>
    <v>       0.50894741       0.65984570       0.70400156 </v>
    <v>       0.26265982       0.50568523       0.60265428 </v>
    <v>       0.21072272       0.41813760       0.53105039 </v>
    <v>       0.60090654       0.58197914       0.45254259 </v>
    <v>       0.38544357       0.65296704       0.72941133 </v>
    <v>       0.47424490       0.54794204       0.44140236 </v>
    <v>       0.40180479       0.45306079       0.52108436 </v>
    <v>       0.53520702       0.41608490       0.59173240 </v>
    <v>       0.46544808       0.54254992       0.59041194 </v>
    <v>       0.60138410       0.50650621       0.52397638 </v>
    <v>       0.53073984       0.40562607       0.44215451 </v>
    <v>       0.50088568       0.48087016       0.51934246 </v>
   </varray>
  </structure>
  <varray name="forces" >
   <v>      -0.05322390       0.25211654      -0.26339172 </v>
   <v>      -0.00095185      -0.00618804       0.00481050 </v>
   <v>       0.00109175      -0.05514813       0.01096378 </v>
   <v>       0.01429039       0.01098685       0.04091133 </v>
   <v>       0.00430571       0.00108206       0.00768443 </v>
   <v>       0.00191091      -0.00359460       0.00660617 </v>
   <v>       0.00202380       0.00909855       0.01127668 </v>
   <v>       0.52864893      -0.51067898       0.67594003 </v>
   <v>       0.31593447       0.08847888       0.00322826 </v>
   <v>      -0.14162632      -0.06522656       0.02205965 </v>
   <v>       0.04699755       0.01779701      -0.00661302 </v>
   <v>       0.05858458      -0.03725325       0.05092579 </v>
   <v>      -0.12001127      -0.04339136       0.01962532 </v>
   <v>       0.00837228      -0.01156005       0.01224548 </v>
   <v>       0.00728793      -0.05132439       0.05593460 </v>
   <v>      -0.70042887       0.03481623      -0.20264989 </v>
   <v>      -0.00443164       0.00384211      -0.01384969 </v>
   <v>       0.01748966      -0.00463819      -0.01321099 </v>
   <v>       0.00390694       0.01042533       0.01589941 </v>
   <v>       0.00211227      -0.01904147      -0.02592129 </v>
   <v>       0.01809862       0.00206925      -0.01736702 </v>
   <v>      -0.01168037      -0.00412585      -0.00204675 </v>
   <v>       0.03372015      -0.01059133      -0.01010191 </v>
   <v>      -0.01834342      -0.00659270       0.00350073 </v>
   <v>       0.01148203      -0.00823842      -0.01078301 </v>
   <v>       0.72741189       0.72668461      -0.54134005 </v>
   <v>      -0.17532760      -0.05775528       0.01460357 </v>
   <v>      -0.04109560      -0.05819593       0.05104663 </v>
   <v>      -0.00481217      -0.00878266      -0.07678650 </v>
   <v>      -0.00197578       0.00858400      -0.00181355 </v>
   <v>       0.00491126      -0.12832964       0.12507722 </v>
   <v>      -0.00313075       0.00495895      -0.00108563 </v>
   <v>       0.00413258      -0.00100557       0.00293219 </v>
   <v>      -0.00139461       0.01503541      -0.00491364 </v>
   <v>      -0.00200950      -0.00818716      -0.04949845 </v>
   <v>       0.03965250       0.00966921      -0.00027325 </v>
   <v>       0.01056788       0.00470208      -0.00703006 </v>
   <v>      -0.01156457      -0.00077254      -0.01535859 </v>
   <v>      -0.00408462      -0.00351229      -0.01678637 </v>
   <v>      -0.00095715      -0.00440387      -0.00474991 </v>
   <v>      -0.00024060      -0.00165249       0.00411412 </v>
   <v>       0.00551962       0.01798019       0.00204694 </v>
   <v>      -0.00420044      -0.00292798       0.00620500 </v>
   <v>       0.00138382       0.00531684      -0.00137070 </v>
   <v>      -0.00418964       0.00030089      -0.00387138 </v>
   <v>      -0.00590040       0.00026380      -0.00357916 </v>
   <v>      -0.00380320      -0.00460129       0.00125313 </v>
   <v>      -0.00327768       0.00836413       0.00538954 </v>
   <v>      -0.00008260       0.02199445       0.01593362 </v>
   <v>      -0.08603054      -0.03130577       0.01733340 </v>
   <v>      -0.38363531      -0.13234826       0.05653404 </v>
   <v>      -0.08260328       0.10869719       0.11262722 </v>
   <v>      -0.09629960       0.01752991      -0.04752794 </v>
   <v>       0.00834051       0.03023482       0.05918597 </v>
   <v>       0.08913528      -0.12965522      -0.07397430 </v>
  </varray>
  <varray name="stress" >
   <v>      -2.93263949      -0.10123995      -0.00561055 </v>
   <v>      -0.10123995      -2.93921341       0.38730078 </v>
   <v>      -0.00561056       0.38730077      -2.93907281 </v>
  </varray>
  <energy>
   <i name="e_fr_energy">   -377.44162336 </i>
   <i name="e_wo_entrp">   -377.44162336 </i>
   <i name="e_0_energy">     -0.00000000 </i>
  </energy>
  <time name="totalsc"> 1032.05 1072.54</time>
  <eigenvalues>
   <array>
    <dimension dim="1">band</dimension>
    <dimension dim="2">kpoint</dimension>
    <dimension dim="3">spin</dimension>
    <field>eigene</field>
    <field>occ</field>
    <set>
     <set comment="spin 1">
      <set comment="kpoint 1">
       <r>  -49.0427    1.0000 </r>
       <r>  -48.9452    1.0000 </r>
       <r>  -48.6743    1.0000 </r>
       <r>  -29.1796    1.0000 </r>
       <r>  -27.5284    1.0000 </r>
       <r>  -26.8480    1.0000 </r>
       <r>  -26.5757    1.0000 </r>
       <r>  -26.1330    1.0000 </r>
       <r>  -26.0822    1.0000 </r>
       <r>  -24.0517    1.0000 </r>
       <r>  -23.0290    1.0000 </r>
       <r>  -22.5543    1.0000 </r>
       <r>  -22.4025    1.0000 </r>
       <r>  -22.2932    1.0000 </r>
       <r>  -22.1710    1.0000 </r>
       <r>  -21.9509    1.0000 </r>
       <r>  -21.5500    1.0000 </r>
       <r>  -21.0216    1.0000 </r>
       <r>  -20.7682    1.0000 </r>
       <r>  -19.6165    1.0000 </r>
       <r>  -19.3370    1.0000 </r>
       <r>  -18.7058    1.0000 </r>
       <r>  -18.4209    1.0000 </r>
       <r>  -18.1625    1.0000 </r>
       <r>  -17.9226    1.0000 </r>
       <r>  -17.7597    1.0000 </r>
       <r>  -17.5813    1.0000 </r>
       <r>  -17.5388    1.0000 </r>
       <r>  -17.2778    1.0000 </r>
       <r>  -16.8581    1.0000 </r>
       <r>  -16.6207    1.0000 </r>
       <r>  -15.8815    1.0000 </r>
       <r>  -15.7730    1.0000 </r>
       <r>  -15.6038    1.0000 </r>
       <r>  -15.1849    1.0000 </r>
       <r>  -14.7411    1.0000 </r>
       <r>  -14.7354    1.0000 </r>
       <r>  -14.6732    1.0000 </r>
       <r>  -14.3715    1.0000 </r>
       <r>  -14.0419    1.0000 </r>
       <r>  -14.0051    1.0000 </r>
       <r>  -13.9426    1.0000 </r>
       <r>  -13.8927    1.0000 </r>
       <r>  -13.8273    1.0000 </r>
       <r>  -13.7636    1.0000 </r>
       <r>  -13.5989    1.0000 </r>
       <r>  -13.5177    1.0000 </r>
       <r>  -13.3115    1.0000 </r>
       <r>  -13.1890    1.0000 </r>
       <r>  -13.1480    1.0000 </r>
       <r>  -12.9276    1.0000 </r>
       <r>  -12.8758    1.0000 </r>
       <r>  -12.6935    1.0000 </r>
       <r>  -12.6318    1.0000 </r>
       <r>  -12.5395    1.0000 </r>
       <r>  -12.3890    1.0000 </r>
       <r>  -12.2764    1.0000 </r>
       <r>  -12.2429    1.0000 </r>
       <r>  -12.1712    1.0000 </r>
       <r>  -12.0365    1.0000 </r>
       <r>  -11.5554    1.0000 </r>
       <r>  -11.4692    1.0000 </r>
       <r>  -11.2538    1.0000 </r>
       <r>  -11.1769    1.0000 </r>
       <r>  -11.1198    1.0000 </r>
       <r>  -11.0376    1.0000 </r>
       <r>  -10.7692    1.0000 </r>
       <r>  -10.6596    1.0000 </r>
       <r>  -10.4809    1.0000 </r>
       <r>  -10.3612    1.0000 </r>
       <r>   -9.9717    1.0000 </r>
       <r>   -9.9526    1.0000 </r>
       <r>   -9.8999    1.0000 </r>
       <r>   -9.7514    1.0000 </r>
       <r>   -9.7108    1.0000 </r>
       <r>   -9.6666    1.0000 </r>
       <r>   -9.3066    1.0000 </r>
       <r>   -9.0459    1.0000 </r>
       <r>   -8.6398    1.0000 </r>
       <r>   -8.3559    1.0000 </r>
       <r>   -7.3852    1.0000 </r>
       <r>   -7.2212    1.0000 </r>
       <r>   -7.1111    1.0000 </r>
       <r>   -5.7783    0.0000 </r>
       <r>   -5.0348    0.0000 </r>
       <r>   -4.9315    0.0000 </r>
       <r>   -4.3352    0.0000 </r>
       <r>   -4.1250    0.0000 </r>
       <r>   -4.0453    0.0000 </r>
       <r>   -3.9267    0.0000 </r>
       <r>   -3.8460    0.0000 </r>
       <r>   -3.5478    0.0000 </r>
       <r>   -3.3816    0.0000 </r>
       <r>   -3.1371    0.0000 </r>
       <r>   -2.9072    0.0000 </r>
       <r>   -2.6921    0.0000 </r>
       <r>   -1.9735    0.0000 </r>
       <r>   -1.7057    0.0000 </r>
       <r>   -1.6123    0.0000 </r>
       <r>   -1.4435    0.0000 </r>
       <r>   -1.3125    0.0000 </r>
       <r>   -1.1648    0.0000 </r>
       <r>   -1.0787    0.0000 </r>
       <r>   -0.9887    0.0000 </r>
       <r>   -0.9335    0.0000 </r>
       <r>   -0.8113    0.0000 </r>
       <r>   -0.6467    0.0000 </r>
       <r>   -0.5913    0.0000 </r>
       <r>   -0.5112    0.0000 </r>
       <r>   -0.4374    0.0000 </r>
       <r>   -0.4108    0.0000 </r>
       <r>   -0.3088    0.0000 </r>
       <r>   -0.2392    0.0000 </r>
       <r>   -0.1298    0.0000 </r>
       <r>   -0.0886    0.0000 </r>
       <r>    0.0317    0.0000 </r>
       <r>    0.0628    0.0000 </r>
       <r>    0.1599    0.0000 </r>
       <r>    0.2354    0.0000 </r>
       <r>    0.2627    0.0000 </r>
       <r>    0.3133    0.0000 </r>
       <r>    0.4093    0.0000 </r>
       <r>    0.4417    0.0000 </r>
       <r>    0.4767    0.0000 </r>
       <r>    0.5686    0.0000 </r>
       <r>    0.6582    0.0000 </r>
       <r>    0.6701    0.0000 </r>
       <r>    0.7483    0.0000 </r>
      </set>
     </set>
     <set comment="spin 2">
      <set comment="kpoint 1">
       <r>  -49.0427    1.0000 </r>
       <r>  -48.9452    1.0000 </r>
       <r>  -48.6743    1.0000 </r>
       <r>  -29.1796    1.0000 </r>
       <r>  -27.5284    1.0000 </r>
       <r>  -26.8480    1.0000 </r>
       <r>  -26.5757    1.0000 </r>
       <r>  -26.1330    1.0000 </r>
       <r>  -26.0822    1.0000 </r>
       <r>  -24.0517    1.0000 </r>
       <r>  -23.0290    1.0000 </r>
       <r>  -22.5543    1.0000 </r>
       <r>  -22.4025    1.0000 </r>
       <r>  -22.2932    1.0000 </r>
       <r>  -22.1710    1.0000 </r>
       <r>  -21.9509    1.0000 </r>
       <r>  -21.5500    1.0000 </r>
       <r>  -21.0216    1.0000 </r>
       <r>  -20.7682    1.0000 </r>
       <r>  -19.6165    1.0000 </r>
       <r>  -19.3370    1.0000 </r>
       <r>  -18.7058    1.0000 </r>
       <r>  -18.4209    1.0000 </r>
       <r>  -18.1625    1.0000 </r>
       <r>  -17.9226    1.0000 </r>
       <r>  -17.7597    1.0000 </r>
       <r>  -17.5813    1.0000 </r>
       <r>  -17.5388    1.0000 </r>
       <r>  -17.2778    1.0000 </r>
       <r>  -16.8581    1.0000 </r>
       <r>  -16.6207    1.0000 </r>
       <r>  -15.8815    1.0000 </r>
       <r>  -15.7730    1.0000 </r>
       <r>  -15.6038    1.0000 </r>
       <r>  -15.1849    1.0000 </r>
       <r>  -14.7411    1.0000 </r>
       <r>  -14.7354    1.0000 </r>
       <r>  -14.6732    1.0000 </r>
       <r>  -14.3715    1.0000 </r>
       <r>  -14.0419    1.0000 </r>
       <r>  -14.0051    1.0000 </r>
       <r>  -13.9426    1.0000 </r>
       <r>  -13.8927    1.0000 </r>
       <r>  -13.8273    1.0000 </r>
       <r>  -13.7636    1.0000 </r>
       <r>  -13.5989    1.0000 </r>
       <r>  -13.5177    1.0000 </r>
       <r>  -13.3115    1.0000 </r>
       <r>  -13.1890    1.0000 </r>
       <r>  -13.1480    1.0000 </r>
       <r>  -12.9276    1.0000 </r>
       <r>  -12.8758    1.0000 </r>
       <r>  -12.6935    1.0000 </r>
       <r>  -12.6318    1.0000 </r>
       <r>  -12.5395    1.0000 </r>
       <r>  -12.3890    1.0000 </r>
       <r>  -12.2764    1.0000 </r>
       <r>  -12.2429    1.0000 </r>
       <r>  -12.1712    1.0000 </r>
       <r>  -12.0365    1.0000 </r>
       <r>  -11.5554    1.0000 </r>
       <r>  -11.4692    1.0000 </r>
       <r>  -11.2538    1.0000 </r>
       <r>  -11.1769    1.0000 </r>
       <r>  -11.1198    1.0000 </r>
       <r>  -11.0376    1.0000 </r>
       <r>  -10.7692    1.0000 </r>
       <r>  -10.6596    1.0000 </r>
       <r>  -10.4809    1.0000 </r>
       <r>  -10.3612    1.0000 </r>
       <r>   -9.9717    1.0000 </r>
       <r>   -9.9526    1.0000 </r>
       <r>   -9.8999    1.0000 </r>
       <r>   -9.7514    1.0000 </r>
       <r>   -9.7108    1.0000 </r>
       <r>   -9.6666    1.0000 </r>
       <r>   -9.3066    1.0000 </r>
       <r>   -9.0459    1.0000 </r>
       <r>   -8.6398    1.0000 </r>
       <r>   -8.3559    1.0000 </r>
       <r>   -7.3852    1.0000 </r>
       <r>   -7.2212    1.0000 </r>
       <r>   -7.1111    1.0000 </r>
       <r>   -5.7783    0.0000 </r>
       <r>   -5.0348    0.0000 </r>
       <r>   -4.9315    0.0000 </r>
       <r>   -4.3352    0.0000 </r>
       <r>   -4.1250    0.0000 </r>
       <r>   -4.0453    0.0000 </r>
       <r>   -3.9267    0.0000 </r>
       <r>   -3.8460    0.0000 </r>
       <r>   -3.5478    0.0000 </r>
       <r>   -3.3816    0.0000 </r>
       <r>   -3.1371    0.0000 </r>
       <r>   -2.9072    0.0000 </r>
       <r>   -2.6921    0.0000 </r>
       <r>   -1.9735    0.0000 </r>
       <r>   -1.7057    0.0000 </r>
       <r>   -1.6123    0.0000 </r>
       <r>   -1.4435    0.0000 </r>
       <r>   -1.3125    0.0000 </r>
       <r>   -1.1648    0.0000 </r>
       <r>   -1.0787    0.0000 </r>
       <r>   -0.9887    0.0000 </r>
       <r>   -0.9335    0.0000 </r>
       <r>   -0.8113    0.0000 </r>
       <r>   -0.6467    0.0000 </r>
       <r>   -0.5913    0.0000 </r>
       <r>   -0.5112    0.0000 </r>
       <r>   -0.4374    0.0000 </r>
       <r>   -0.4108    0.0000 </r>
       <r>   -0.3088    0.0000 </r>
       <r>   -0.2392    0.0000 </r>
       <r>   -0.1298    0.0000 </r>
       <r>   -0.0886    0.0000 </r>
       <r>    0.0317    0.0000 </r>
       <r>    0.0628    0.0000 </r>
       <r>    0.1599    0.0000 </r>
       <r>    0.2354    0.0000 </r>
       <r>    0.2627    0.0000 </r>
       <r>    0.3133    0.0000 </r>
       <r>    0.4093    0.0000 </r>
       <r>    0.4417    0.0000 </r>
       <r>    0.4767    0.0000 </r>
       <r>    0.5686    0.0000 </r>
       <r>    0.6582    0.0000 </r>
       <r>    0.6701    0.0000 </r>
       <r>    0.7490    0.0000 </r>
      </set>
     </set>
    </set>
   </array>
  </eigenvalues>
  <separator name="orbital magnetization" >
   <v name="MAGDIPOLOUT">      0.00000000      0.00000000      0.00000000</v>
  </separator>
  <dos>
   <i name="efermi">     -6.93963842 </i>
   <total>
    <array>
     <dimension dim="1">gridpoints</dimension>
     <dimension dim="2">spin</dimension>
     <field>energy</field>
     <field>total</field>
     <field>integrated</field>
     <set>
      <set comment="spin 1">
       <r>   -51.5323     0.0000     0.0000 </r>
       <r>   -51.3497     0.0000     0.0000 </r>
       <r>   -51.1671     0.0000     0.0000 </r>
       <r>   -50.9846     0.0000     0.0000 </r>
       <r>   -50.8020     0.0000     0.0000 </r>
       <r>   -50.6194     0.0000     0.0000 </r>
       <r>   -50.4369     0.0000     0.0000 </r>
       <r>   -50.2543     0.0000     0.0000 </r>
       <r>   -50.0717     0.0000     0.0000 </r>
       <r>   -49.8891     0.0000     0.0000 </r>
       <r>   -49.7066     0.0000     0.0000 </r>
       <r>   -49.5240     0.0000     0.0000 </r>
       <r>   -49.3414     0.0000     0.0000 </r>
       <r>   -49.1589     0.0000     0.0000 </r>
       <r>   -48.9763    10.9548     2.0000 </r>
       <r>   -48.7937     0.0000     4.0000 </r>
       <r>   -48.6112    10.9547     6.0000 </r>
       <r>   -48.4286     0.0000     6.0000 </r>
       <r>   -48.2460     0.0000     6.0000 </r>
       <r>   -48.0634     0.0000     6.0000 </r>
       <r>   -47.8809     0.0000     6.0000 </r>
       <r>   -47.6983     0.0000     6.0000 </r>
       <r>   -47.5157     0.0000     6.0000 </r>
       <r>   -47.3332     0.0000     6.0000 </r>
       <r>   -47.1506     0.0000     6.0000 </r>
       <r>   -46.9680     0.0000     6.0000 </r>
       <r>   -46.7855     0.0000     6.0000 </r>
       <r>   -46.6029     0.0000     6.0000 </r>
       <r>   -46.4203     0.0000     6.0000 </r>
       <r>   -46.2378     0.0000     6.0000 </r>
       <r>   -46.0552     0.0000     6.0000 </r>
       <r>   -45.8726     0.0000     6.0000 </r>
       <r>   -45.6900     0.0000     6.0000 </r>
       <r>   -45.5075     0.0000     6.0000 </r>
       <r>   -45.3249     0.0000     6.0000 </r>
       <r>   -45.1423     0.0000     6.0000 </r>
       <r>   -44.9598     0.0000     6.0000 </r>
       <r>   -44.7772     0.0000     6.0000 </r>
       <r>   -44.5946     0.0000     6.0000 </r>
       <r>   -44.4121     0.0000     6.0000 </r>
       <r>   -44.2295     0.0000     6.0000 </r>
       <r>   -44.0469     0.0000     6.0000 </r>
       <r>   -43.8643     0.0000     6.0000 </r>
       <r>   -43.6818     0.0000     6.0000 </r>
       <r>   -43.4992     0.0000     6.0000 </r>
       <r>   -43.3166     0.0000     6.0000 </r>
       <r>   -43.1341     0.0000     6.0000 </r>
       <r>   -42.9515     0.0000     6.0000 </r>
       <r>   -42.7689     0.0000     6.0000 </r>
       <r>   -42.5864     0.0000     6.0000 </r>
       <r>   -42.4038     0.0000     6.0000 </r>
       <r>   -42.2212     0.0000     6.0000 </r>
       <r>   -42.0387     0.0000     6.0000 </r>
       <r>   -41.8561     0.0000     6.0000 </r>
       <r>   -41.6735     0.0000     6.0000 </r>
       <r>   -41.4909     0.0000     6.0000 </r>
       <r>   -41.3084     0.0000     6.0000 </r>
       <r>   -41.1258     0.0000     6.0000 </r>
       <r>   -40.9432     0.0000     6.0000 </r>
       <r>   -40.7607     0.0000     6.0000 </r>
       <r>   -40.5781     0.0000     6.0000 </r>
       <r>   -40.3955     0.0000     6.0000 </r>
       <r>   -40.2130     0.0000     6.0000 </r>
       <r>   -40.0304     0.0000     6.0000 </r>
       <r>   -39.8478     0.0000     6.0000 </r>
       <r>   -39.6652     0.0000     6.0000 </r>
       <r>   -39.4827     0.0000     6.0000 </r>
       <r>   -39.3001     0.0000     6.0000 </r>
       <r>   -39.1175     0.0000     6.0000 </r>
       <r>   -38.9350     0.0000     6.0000 </r>
       <r>   -38.7524     0.0000     6.0000 </r>
       <r>   -38.5698     0.0000     6.0000 </r>
       <r>   -38.3873     0.0000     6.0000 </r>
       <r>   -38.2047     0.0000     6.0000 </r>
       <r>   -38.0221     0.0000     6.0000 </r>
       <r>   -37.8395     0.0000     6.0000 </r>
       <r>   -37.6570     0.0000     6.0000 </r>
       <r>   -37.4744     0.0000     6.0000 </r>
       <r>   -37.2918     0.0000     6.0000 </r>
       <r>   -37.1093     0.0000     6.0000 </r>
       <r>   -36.9267     0.0000     6.0000 </r>
       <r>   -36.7441     0.0000     6.0000 </r>
       <r>   -36.5616     0.0000     6.0000 </r>
       <r>   -36.3790     0.0000     6.0000 </r>
       <r>   -36.1964     0.0000     6.0000 </r>
       <r>   -36.0139     0.0000     6.0000 </r>
       <r>   -35.8313     0.0000     6.0000 </r>
       <r>   -35.6487     0.0000     6.0000 </r>
       <r>   -35.4661     0.0000     6.0000 </r>
       <r>   -35.2836     0.0000     6.0000 </r>
       <r>   -35.1010     0.0000     6.0000 </r>
       <r>   -34.9184     0.0000     6.0000 </r>
       <r>   -34.7359     0.0000     6.0000 </r>
       <r>   -34.5533     0.0000     6.0000 </r>
       <r>   -34.3707     0.0000     6.0000 </r>
       <r>   -34.1882     0.0000     6.0000 </r>
       <r>   -34.0056     0.0000     6.0000 </r>
       <r>   -33.8230     0.0000     6.0000 </r>
       <r>   -33.6404     0.0000     6.0000 </r>
       <r>   -33.4579     0.0000     6.0000 </r>
       <r>   -33.2753     0.0000     6.0000 </r>
       <r>   -33.0927     0.0000     6.0000 </r>
       <r>   -32.9102     0.0000     6.0000 </r>
       <r>   -32.7276     0.0000     6.0000 </r>
       <r>   -32.5450     0.0000     6.0000 </r>
       <r>   -32.3625     0.0000     6.0000 </r>
       <r>   -32.1799     0.0000     6.0000 </r>
       <r>   -31.9973     0.0000     6.0000 </r>
       <r>   -31.8148     0.0000     6.0000 </r>
       <r>   -31.6322     0.0000     6.0000 </r>
       <r>   -31.4496     0.0000     6.0000 </r>
       <r>   -31.2670     0.0000     6.0000 </r>
       <r>   -31.0845     0.0000     6.0000 </r>
       <r>   -30.9019     0.0000     6.0000 </r>
       <r>   -30.7193     0.0000     6.0000 </r>
       <r>   -30.5368     0.0000     6.0000 </r>
       <r>   -30.3542     0.0000     6.0000 </r>
       <r>   -30.1716     0.0000     6.0000 </r>
       <r>   -29.9891     0.0000     6.0000 </r>
       <r>   -29.8065     0.0000     6.0000 </r>
       <r>   -29.6239     0.0000     6.0000 </r>
       <r>   -29.4413     0.0000     6.0000 </r>
       <r>   -29.2588     0.0000     6.0000 </r>
       <r>   -29.0762     0.0000     8.0000 </r>
       <r>   -28.8936     0.0000     8.0000 </r>
       <r>   -28.7111     0.0000     8.0000 </r>
       <r>   -28.5285     0.0000     8.0000 </r>
       <r>   -28.3459     0.0000     8.0000 </r>
       <r>   -28.1634     0.0000     8.0000 </r>
       <r>   -27.9808     0.0000     8.0000 </r>
       <r>   -27.7982     0.0000     8.0000 </r>
       <r>   -27.6156     0.0000     8.0000 </r>
       <r>   -27.4331     0.0000    10.0000 </r>
       <r>   -27.2505     0.0000    10.0000 </r>
       <r>   -27.0679     0.0000    10.0000 </r>
       <r>   -26.8854     0.0000    10.0000 </r>
       <r>   -26.7028     0.0000    12.0000 </r>
       <r>   -26.5202    10.9547    14.0000 </r>
       <r>   -26.3377     0.0000    14.0000 </r>
       <r>   -26.1551     0.0098    14.0018 </r>
       <r>   -25.9725     0.0000    18.0000 </r>
       <r>   -25.7900     0.0000    18.0000 </r>
       <r>   -25.6074     0.0000    18.0000 </r>
       <r>   -25.4248     0.0000    18.0000 </r>
       <r>   -25.2422     0.0000    18.0000 </r>
       <r>   -25.0597     0.0000    18.0000 </r>
       <r>   -24.8771     0.0000    18.0000 </r>
       <r>   -24.6945     0.0000    18.0000 </r>
       <r>   -24.5120     0.0000    18.0000 </r>
       <r>   -24.3294     0.0000    18.0000 </r>
       <r>   -24.1468     0.0000    18.0000 </r>
       <r>   -23.9643     0.0000    20.0000 </r>
       <r>   -23.7817     0.0000    20.0000 </r>
       <r>   -23.5991     0.0000    20.0000 </r>
       <r>   -23.4165     0.0000    20.0000 </r>
       <r>   -23.2340     0.0000    20.0000 </r>
       <r>   -23.0514     0.0082    20.0015 </r>
       <r>   -22.8688     0.0000    22.0000 </r>
       <r>   -22.6863     0.0000    22.0000 </r>
       <r>   -22.5037    10.9547    24.0000 </r>
       <r>   -22.3211     0.0004    26.0001 </r>
       <r>   -22.1386    10.9547    30.0000 </r>
       <r>   -21.9560     2.6054    30.4757 </r>
       <r>   -21.7734     0.0000    32.0000 </r>
       <r>   -21.5909     0.0000    32.0000 </r>
       <r>   -21.4083     0.0000    34.0000 </r>
       <r>   -21.2257     0.0000    34.0000 </r>
       <r>   -21.0431     0.0129    34.0024 </r>
       <r>   -20.8606     0.0000    36.0000 </r>
       <r>   -20.6780     0.0000    38.0000 </r>
       <r>   -20.4954     0.0000    38.0000 </r>
       <r>   -20.3129     0.0000    38.0000 </r>
       <r>   -20.1303     0.0000    38.0000 </r>
       <r>   -19.9477     0.0000    38.0000 </r>
       <r>   -19.7652     0.0000    38.0000 </r>
       <r>   -19.5826    10.9547    40.0000 </r>
       <r>   -19.4000     0.0000    40.0000 </r>
       <r>   -19.2174     0.0000    42.0000 </r>
       <r>   -19.0349     0.0000    42.0000 </r>
       <r>   -18.8523     0.0000    42.0000 </r>
       <r>   -18.6697    10.9547    44.0000 </r>
       <r>   -18.4872     0.0000    44.0000 </r>
       <r>   -18.3046     0.0000    46.0000 </r>
       <r>   -18.1220    10.9547    48.0000 </r>
       <r>   -17.9395     0.0936    48.0171 </r>
       <r>   -17.7569     7.1419    51.3039 </r>
       <r>   -17.5743     9.1648    53.6732 </r>
       <r>   -17.3918     0.0000    56.0000 </r>
       <r>   -17.2092    10.9547    58.0000 </r>
       <r>   -17.0266     0.0000    58.0000 </r>
       <r>   -16.8440    10.6973    59.9530 </r>
       <r>   -16.6615     0.0000    60.0000 </r>
       <r>   -16.4789     0.0000    62.0000 </r>
       <r>   -16.2963     0.0000    62.0000 </r>
       <r>   -16.1138     0.0000    62.0000 </r>
       <r>   -15.9312     0.0000    62.0000 </r>
       <r>   -15.7486    10.9516    65.9994 </r>
       <r>   -15.5661    10.9547    68.0000 </r>
       <r>   -15.3835     0.0000    68.0000 </r>
       <r>   -15.2009     0.1284    68.0234 </r>
       <r>   -15.0183     0.0000    70.0000 </r>
       <r>   -14.8358     0.0000    70.0000 </r>
       <r>   -14.6532    10.9294    75.9954 </r>
       <r>   -14.4706     0.0000    76.0000 </r>
       <r>   -14.2881     0.0000    78.0000 </r>
       <r>   -14.1055     0.0000    78.0000 </r>
       <r>   -13.9229    10.9256    83.9947 </r>
       <r>   -13.7404    10.9491    89.9990 </r>
       <r>   -13.5578    10.9547    92.0000 </r>
       <r>   -13.3752     0.0000    94.0000 </r>
       <r>   -13.1926     3.3326    96.6084 </r>
       <r>   -13.0101     0.0000   100.0000 </r>
       <r>   -12.8275    10.9547   104.0000 </r>
       <r>   -12.6449    11.3061   106.0641 </r>
       <r>   -12.4624    10.9547   110.0000 </r>
       <r>   -12.2798     3.4571   112.6312 </r>
       <r>   -12.0972    10.9547   118.0000 </r>
       <r>   -11.9147     0.0000   120.0000 </r>
       <r>   -11.7321     0.0000   120.0000 </r>
       <r>   -11.5495     8.7107   121.5903 </r>
       <r>   -11.3670     0.0000   124.0000 </r>
       <r>   -11.1844    12.5582   126.2927 </r>
       <r>   -11.0018    10.9547   132.0000 </r>
       <r>   -10.8192     0.0000   132.0000 </r>
       <r>   -10.6367    10.9483   135.9988 </r>
       <r>   -10.4541    10.9539   137.9998 </r>
       <r>   -10.2715     0.0000   140.0000 </r>
       <r>   -10.0890     0.0000   140.0000 </r>
       <r>    -9.9064    23.8638   144.3568 </r>
       <r>    -9.7238    11.3091   148.0647 </r>
       <r>    -9.5413     0.0000   152.0000 </r>
       <r>    -9.3587     0.0000   152.0000 </r>
       <r>    -9.1761     0.0000   154.0000 </r>
       <r>    -8.9935    10.9547   156.0000 </r>
       <r>    -8.8110     0.0000   156.0000 </r>
       <r>    -8.6284    10.3672   157.8927 </r>
       <r>    -8.4458     0.0000   158.0000 </r>
       <r>    -8.2633     0.0000   160.0000 </r>
       <r>    -8.0807     0.0000   160.0000 </r>
       <r>    -7.8981     0.0000   160.0000 </r>
       <r>    -7.7156     0.0000   160.0000 </r>
       <r>    -7.5330     0.0000   160.0000 </r>
       <r>    -7.3504    10.9547   162.0000 </r>
       <r>    -7.1679    10.9547   164.0000 </r>
       <r>    -6.9853     0.0000   166.0000 </r>
       <r>    -6.8027     0.0000   166.0000 </r>
       <r>    -6.6201     0.0000   166.0000 </r>
       <r>    -6.4376     0.0000   166.0000 </r>
       <r>    -6.2550     0.0000   166.0000 </r>
       <r>    -6.0724     0.0000   166.0000 </r>
       <r>    -5.8899     0.0000   166.0000 </r>
       <r>    -5.7073    10.9547   168.0000 </r>
       <r>    -5.5247     0.0000   168.0000 </r>
       <r>    -5.3422     0.0000   168.0000 </r>
       <r>    -5.1596     0.0000   168.0000 </r>
       <r>    -4.9770    10.9547   170.0000 </r>
       <r>    -4.7944     0.0000   172.0000 </r>
       <r>    -4.6119     0.0000   172.0000 </r>
       <r>    -4.4293     0.0000   172.0000 </r>
       <r>    -4.2467     0.0000   174.0000 </r>
       <r>    -4.0642    10.9961   176.0075 </r>
       <r>    -3.8816    10.9547   180.0000 </r>
       <r>    -3.6990     0.0000   182.0000 </r>
       <r>    -3.5165    10.9547   184.0000 </r>
       <r>    -3.3339    10.9547   186.0000 </r>
       <r>    -3.1513     0.2466   186.0450 </r>
       <r>    -2.9687     0.0000   188.0000 </r>
       <r>    -2.7862     0.0000   190.0000 </r>
       <r>    -2.6036     0.0000   192.0000 </r>
       <r>    -2.4210     0.0000   192.0000 </r>
       <r>    -2.2385     0.0000   192.0000 </r>
       <r>    -2.0559     0.0000   192.0000 </r>
       <r>    -1.8733     0.0000   194.0000 </r>
       <r>    -1.6908    10.7646   195.9653 </r>
       <r>    -1.5082     0.0000   198.0000 </r>
       <r>    -1.3256     0.3523   200.0643 </r>
       <r>    -1.1431    10.9431   203.9979 </r>
       <r>    -0.9605    10.9551   208.0001 </r>
       <r>    -0.7779    10.9547   212.0000 </r>
       <r>    -0.5953    14.0628   214.5674 </r>
       <r>    -0.4128    15.2479   220.7838 </r>
       <r>    -0.2302    20.8018   225.7978 </r>
       <r>    -0.0476    10.9547   230.0000 </r>
       <r>     0.1349    10.9570   234.0004 </r>
       <r>     0.3175    18.8727   241.4456 </r>
       <r>     0.5001    21.9043   247.9991 </r>
       <r>     0.6826    21.4878   253.9230 </r>
       <r>     0.8652     0.0000   256.0000 </r>
       <r>     1.0478     0.0000   256.0000 </r>
       <r>     1.2304     0.0000   256.0000 </r>
       <r>     1.4129     0.0000   256.0000 </r>
       <r>     1.5955     0.0000   256.0000 </r>
       <r>     1.7781     0.0000   256.0000 </r>
       <r>     1.9606     0.0000   256.0000 </r>
       <r>     2.1432     0.0000   256.0000 </r>
       <r>     2.3258     0.0000   256.0000 </r>
       <r>     2.5083     0.0000   256.0000 </r>
       <r>     2.6909     0.0000   256.0000 </r>
       <r>     2.8735     0.0000   256.0000 </r>
       <r>     3.0560     0.0000   256.0000 </r>
       <r>     3.2386     0.0000   256.0000 </r>
      </set>
      <set comment="spin 2">
       <r>   -51.5323     0.0000     0.0000 </r>
       <r>   -51.3497     0.0000     0.0000 </r>
       <r>   -51.1671     0.0000     0.0000 </r>
       <r>   -50.9846     0.0000     0.0000 </r>
       <r>   -50.8020     0.0000     0.0000 </r>
       <r>   -50.6194     0.0000     0.0000 </r>
       <r>   -50.4369     0.0000     0.0000 </r>
       <r>   -50.2543     0.0000     0.0000 </r>
       <r>   -50.0717     0.0000     0.0000 </r>
       <r>   -49.8891     0.0000     0.0000 </r>
       <r>   -49.7066     0.0000     0.0000 </r>
       <r>   -49.5240     0.0000     0.0000 </r>
       <r>   -49.3414     0.0000     0.0000 </r>
       <r>   -49.1589     0.0000     0.0000 </r>
       <r>   -48.9763    10.9548     2.0000 </r>
       <r>   -48.7937     0.0000     4.0000 </r>
       <r>   -48.6112    10.9547     6.0000 </r>
       <r>   -48.4286     0.0000     6.0000 </r>
       <r>   -48.2460     0.0000     6.0000 </r>
       <r>   -48.0634     0.0000     6.0000 </r>
       <r>   -47.8809     0.0000     6.0000 </r>
       <r>   -47.6983     0.0000     6.0000 </r>
       <r>   -47.5157     0.0000     6.0000 </r>
       <r>   -47.3332     0.0000     6.0000 </r>
       <r>   -47.1506     0.0000     6.0000 </r>
       <r>   -46.9680     0.0000     6.0000 </r>
       <r>   -46.7855     0.0000     6.0000 </r>
       <r>   -46.6029     0.0000     6.0000 </r>
       <r>   -46.4203     0.0000     6.0000 </r>
       <r>   -46.2378     0.0000     6.0000 </r>
       <r>   -46.0552     0.0000     6.0000 </r>
       <r>   -45.8726     0.0000     6.0000 </r>
       <r>   -45.6900     0.0000     6.0000 </r>
       <r>   -45.5075     0.0000     6.0000 </r>
       <r>   -45.3249     0.0000     6.0000 </r>
       <r>   -45.1423     0.0000     6.0000 </r>
       <r>   -44.9598     0.0000     6.0000 </r>
       <r>   -44.7772     0.0000     6.0000 </r>
       <r>   -44.5946     0.0000     6.0000 </r>
       <r>   -44.4121     0.0000     6.0000 </r>
       <r>   -44.2295     0.0000     6.0000 </r>
       <r>   -44.0469     0.0000     6.0000 </r>
       <r>   -43.8643     0.0000     6.0000 </r>
       <r>   -43.6818     0.0000     6.0000 </r>
       <r>   -43.4992     0.0000     6.0000 </r>
       <r>   -43.3166     0.0000     6.0000 </r>
       <r>   -43.1341     0.0000     6.0000 </r>
       <r>   -42.9515     0.0000     6.0000 </r>
       <r>   -42.7689     0.0000     6.0000 </r>
       <r>   -42.5864     0.0000     6.0000 </r>
       <r>   -42.4038     0.0000     6.0000 </r>
       <r>   -42.2212     0.0000     6.0000 </r>
       <r>   -42.0387     0.0000     6.0000 </r>
       <r>   -41.8561     0.0000     6.0000 </r>
       <r>   -41.6735     0.0000     6.0000 </r>
       <r>   -41.4909     0.0000     6.0000 </r>
       <r>   -41.3084     0.0000     6.0000 </r>
       <r>   -41.1258     0.0000     6.0000 </r>
       <r>   -40.9432     0.0000     6.0000 </r>
       <r>   -40.7607     0.0000     6.0000 </r>
       <r>   -40.5781     0.0000     6.0000 </r>
       <r>   -40.3955     0.0000     6.0000 </r>
       <r>   -40.2130     0.0000     6.0000 </r>
       <r>   -40.0304     0.0000     6.0000 </r>
       <r>   -39.8478     0.0000     6.0000 </r>
       <r>   -39.6652     0.0000     6.0000 </r>
       <r>   -39.4827     0.0000     6.0000 </r>
       <r>   -39.3001     0.0000     6.0000 </r>
       <r>   -39.1175     0.0000     6.0000 </r>
       <r>   -38.9350     0.0000     6.0000 </r>
       <r>   -38.7524     0.0000     6.0000 </r>
       <r>   -38.5698     0.0000     6.0000 </r>
       <r>   -38.3873     0.0000     6.0000 </r>
       <r>   -38.2047     0.0000     6.0000 </r>
       <r>   -38.0221     0.0000     6.0000 </r>
       <r>   -37.8395     0.0000     6.0000 </r>
       <r>   -37.6570     0.0000     6.0000 </r>
       <r>   -37.4744     0.0000     6.0000 </r>
       <r>   -37.2918     0.0000     6.0000 </r>
       <r>   -37.1093     0.0000     6.0000 </r>
       <r>   -36.9267     0.0000     6.0000 </r>
       <r>   -36.7441     0.0000     6.0000 </r>
       <r>   -36.5616     0.0000     6.0000 </r>
       <r>   -36.3790     0.0000     6.0000 </r>
       <r>   -36.1964     0.0000     6.0000 </r>
       <r>   -36.0139     0.0000     6.0000 </r>
       <r>   -35.8313     0.0000     6.0000 </r>
       <r>   -35.6487     0.0000     6.0000 </r>
       <r>   -35.4661     0.0000     6.0000 </r>
       <r>   -35.2836     0.0000     6.0000 </r>
       <r>   -35.1010     0.0000     6.0000 </r>
       <r>   -34.9184     0.0000     6.0000 </r>
       <r>   -34.7359     0.0000     6.0000 </r>
       <r>   -34.5533     0.0000     6.0000 </r>
       <r>   -34.3707     0.0000     6.0000 </r>
       <r>   -34.1882     0.0000     6.0000 </r>
       <r>   -34.0056     0.0000     6.0000 </r>
       <r>   -33.8230     0.0000     6.0000 </r>
       <r>   -33.6404     0.0000     6.0000 </r>
       <r>   -33.4579     0.0000     6.0000 </r>
       <r>   -33.2753     0.0000     6.0000 </r>
       <r>   -33.0927     0.0000     6.0000 </r>
       <r>   -32.9102     0.0000     6.0000 </r>
       <r>   -32.7276     0.0000     6.0000 </r>
       <r>   -32.5450     0.0000     6.0000 </r>
       <r>   -32.3625     0.0000     6.0000 </r>
       <r>   -32.1799     0.0000     6.0000 </r>
       <r>   -31.9973     0.0000     6.0000 </r>
       <r>   -31.8148     0.0000     6.0000 </r>
       <r>   -31.6322     0.0000     6.0000 </r>
       <r>   -31.4496     0.0000     6.0000 </r>
       <r>   -31.2670     0.0000     6.0000 </r>
       <r>   -31.0845     0.0000     6.0000 </r>
       <r>   -30.9019     0.0000     6.0000 </r>
       <r>   -30.7193     0.0000     6.0000 </r>
       <r>   -30.5368     0.0000     6.0000 </r>
       <r>   -30.3542     0.0000     6.0000 </r>
       <r>   -30.1716     0.0000     6.0000 </r>
       <r>   -29.9891     0.0000     6.0000 </r>
       <r>   -29.8065     0.0000     6.0000 </r>
       <r>   -29.6239     0.0000     6.0000 </r>
       <r>   -29.4413     0.0000     6.0000 </r>
       <r>   -29.2588     0.0000     6.0000 </r>
       <r>   -29.0762     0.0000     8.0000 </r>
       <r>   -28.8936     0.0000     8.0000 </r>
       <r>   -28.7111     0.0000     8.0000 </r>
       <r>   -28.5285     0.0000     8.0000 </r>
       <r>   -28.3459     0.0000     8.0000 </r>
       <r>   -28.1634     0.0000     8.0000 </r>
       <r>   -27.9808     0.0000     8.0000 </r>
       <r>   -27.7982     0.0000     8.0000 </r>
       <r>   -27.6156     0.0000     8.0000 </r>
       <r>   -27.4331     0.0000    10.0000 </r>
       <r>   -27.2505     0.0000    10.0000 </r>
       <r>   -27.0679     0.0000    10.0000 </r>
       <r>   -26.8854     0.0000    10.0000 </r>
       <r>   -26.7028     0.0000    12.0000 </r>
       <r>   -26.5202    10.9547    14.0000 </r>
       <r>   -26.3377     0.0000    14.0000 </r>
       <r>   -26.1551     0.0098    14.0018 </r>
       <r>   -25.9725     0.0000    18.0000 </r>
       <r>   -25.7900     0.0000    18.0000 </r>
       <r>   -25.6074     0.0000    18.0000 </r>
       <r>   -25.4248     0.0000    18.0000 </r>
       <r>   -25.2422     0.0000    18.0000 </r>
       <r>   -25.0597     0.0000    18.0000 </r>
       <r>   -24.8771     0.0000    18.0000 </r>
       <r>   -24.6945     0.0000    18.0000 </r>
       <r>   -24.5120     0.0000    18.0000 </r>
       <r>   -24.3294     0.0000    18.0000 </r>
       <r>   -24.1468     0.0000    18.0000 </r>
       <r>   -23.9643     0.0000    20.0000 </r>
       <r>   -23.7817     0.0000    20.0000 </r>
       <r>   -23.5991     0.0000    20.0000 </r>
       <r>   -23.4165     0.0000    20.0000 </r>
       <r>   -23.2340     0.0000    20.0000 </r>
       <r>   -23.0514     0.0082    20.0015 </r>
       <r>   -22.8688     0.0000    22.0000 </r>
       <r>   -22.6863     0.0000    22.0000 </r>
       <r>   -22.5037    10.9547    24.0000 </r>
       <r>   -22.3211     0.0004    26.0001 </r>
       <r>   -22.1386    10.9547    30.0000 </r>
       <r>   -21.9560     2.6054    30.4757 </r>
       <r>   -21.7734     0.0000    32.0000 </r>
       <r>   -21.5909     0.0000    32.0000 </r>
       <r>   -21.4083     0.0000    34.0000 </r>
       <r>   -21.2257     0.0000    34.0000 </r>
       <r>   -21.0431     0.0129    34.0024 </r>
       <r>   -20.8606     0.0000    36.0000 </r>
       <r>   -20.6780     0.0000    38.0000 </r>
       <r>   -20.4954     0.0000    38.0000 </r>
       <r>   -20.3129     0.0000    38.0000 </r>
       <r>   -20.1303     0.0000    38.0000 </r>
       <r>   -19.9477     0.0000    38.0000 </r>
       <r>   -19.7652     0.0000    38.0000 </r>
       <r>   -19.5826    10.9547    40.0000 </r>
       <r>   -19.4000     0.0000    40.0000 </r>
       <r>   -19.2174     0.0000    42.0000 </r>
       <r>   -19.0349     0.0000    42.0000 </r>
       <r>   -18.8523     0.0000    42.0000 </r>
       <r>   -18.6697    10.9547    44.0000 </r>
       <r>   -18.4872     0.0000    44.0000 </r>
       <r>   -18.3046     0.0000    46.0000 </r>
       <r>   -18.1220    10.9547    48.0000 </r>
       <r>   -17.9395     0.0936    48.0171 </r>
       <r>   -17.7569     7.1420    51.3039 </r>
       <r>   -17.5743     9.1648    53.6732 </r>
       <r>   -17.3918     0.0000    56.0000 </r>
       <r>   -17.2092    10.9547    58.0000 </r>
       <r>   -17.0266     0.0000    58.0000 </r>
       <r>   -16.8440    10.6973    59.9530 </r>
       <r>   -16.6615     0.0000    60.0000 </r>
       <r>   -16.4789     0.0000    62.0000 </r>
       <r>   -16.2963     0.0000    62.0000 </r>
       <r>   -16.1138     0.0000    62.0000 </r>
       <r>   -15.9312     0.0000    62.0000 </r>
       <r>   -15.7486    10.9516    65.9994 </r>
       <r>   -15.5661    10.9547    68.0000 </r>
       <r>   -15.3835     0.0000    68.0000 </r>
       <r>   -15.2009     0.1284    68.0234 </r>
       <r>   -15.0183     0.0000    70.0000 </r>
       <r>   -14.8358     0.0000    70.0000 </r>
       <r>   -14.6532    10.9294    75.9954 </r>
       <r>   -14.4706     0.0000    76.0000 </r>
       <r>   -14.2881     0.0000    78.0000 </r>
       <r>   -14.1055     0.0000    78.0000 </r>
       <r>   -13.9229    10.9256    83.9947 </r>
       <r>   -13.7404    10.9491    89.9990 </r>
       <r>   -13.5578    10.9547    92.0000 </r>
       <r>   -13.3752     0.0000    94.0000 </r>
       <r>   -13.1926     3.3326    96.6084 </r>
       <r>   -13.0101     0.0000   100.0000 </r>
       <r>   -12.8275    10.9547   104.0000 </r>
       <r>   -12.6449    11.3061   106.0641 </r>
       <r>   -12.4624    10.9547   110.0000 </r>
       <r>   -12.2798     3.4570   112.6311 </r>
       <r>   -12.0972    10.9547   118.0000 </r>
       <r>   -11.9147     0.0000   120.0000 </r>
       <r>   -11.7321     0.0000   120.0000 </r>
       <r>   -11.5495     8.7107   121.5903 </r>
       <r>   -11.3670     0.0000   124.0000 </r>
       <r>   -11.1844    12.5582   126.2927 </r>
       <r>   -11.0018    10.9547   132.0000 </r>
       <r>   -10.8192     0.0000   132.0000 </r>
       <r>   -10.6367    10.9483   135.9988 </r>
       <r>   -10.4541    10.9539   137.9998 </r>
       <r>   -10.2715     0.0000   140.0000 </r>
       <r>   -10.0890     0.0000   140.0000 </r>
       <r>    -9.9064    23.8638   144.3568 </r>
       <r>    -9.7238    11.3091   148.0647 </r>
       <r>    -9.5413     0.0000   152.0000 </r>
       <r>    -9.3587     0.0000   152.0000 </r>
       <r>    -9.1761     0.0000   154.0000 </r>
       <r>    -8.9935    10.9547   156.0000 </r>
       <r>    -8.8110     0.0000   156.0000 </r>
       <r>    -8.6284    10.3672   157.8927 </r>
       <r>    -8.4458     0.0000   158.0000 </r>
       <r>    -8.2633     0.0000   160.0000 </r>
       <r>    -8.0807     0.0000   160.0000 </r>
       <r>    -7.8981     0.0000   160.0000 </r>
       <r>    -7.7156     0.0000   160.0000 </r>
       <r>    -7.5330     0.0000   160.0000 </r>
       <r>    -7.3504    10.9547   162.0000 </r>
       <r>    -7.1679    10.9547   164.0000 </r>
       <r>    -6.9853     0.0000   166.0000 </r>
       <r>    -6.8027     0.0000   166.0000 </r>
       <r>    -6.6201     0.0000   166.0000 </r>
       <r>    -6.4376     0.0000   166.0000 </r>
       <r>    -6.2550     0.0000   166.0000 </r>
       <r>    -6.0724     0.0000   166.0000 </r>
       <r>    -5.8899     0.0000   166.0000 </r>
       <r>    -5.7073    10.9547   168.0000 </r>
       <r>    -5.5247     0.0000   168.0000 </r>
       <r>    -5.3422     0.0000   168.0000 </r>
       <r>    -5.1596     0.0000   168.0000 </r>
       <r>    -4.9770    10.9547   170.0000 </r>
       <r>    -4.7944     0.0000   172.0000 </r>
       <r>    -4.6119     0.0000   172.0000 </r>
       <r>    -4.4293     0.0000   172.0000 </r>
       <r>    -4.2467     0.0000   174.0000 </r>
       <r>    -4.0642    10.9961   176.0075 </r>
       <r>    -3.8816    10.9547   180.0000 </r>
       <r>    -3.6990     0.0000   182.0000 </r>
       <r>    -3.5165    10.9547   184.0000 </r>
       <r>    -3.3339    10.9547   186.0000 </r>
       <r>    -3.1513     0.2466   186.0450 </r>
       <r>    -2.9687     0.0000   188.0000 </r>
       <r>    -2.7862     0.0000   190.0000 </r>
       <r>    -2.6036     0.0000   192.0000 </r>
       <r>    -2.4210     0.0000   192.0000 </r>
       <r>    -2.2385     0.0000   192.0000 </r>
       <r>    -2.0559     0.0000   192.0000 </r>
       <r>    -1.8733     0.0000   194.0000 </r>
       <r>    -1.6908    10.7646   195.9653 </r>
       <r>    -1.5082     0.0000   198.0000 </r>
       <r>    -1.3256     0.3523   200.0643 </r>
       <r>    -1.1431    10.9431   203.9979 </r>
       <r>    -0.9605    10.9551   208.0001 </r>
       <r>    -0.7779    10.9547   212.0000 </r>
       <r>    -0.5953    14.0625   214.5674 </r>
       <r>    -0.4128    15.2468   220.7836 </r>
       <r>    -0.2302    20.8011   225.7976 </r>
       <r>    -0.0476    10.9547   230.0000 </r>
       <r>     0.1349    10.9570   234.0004 </r>
       <r>     0.3175    18.8711   241.4453 </r>
       <r>     0.5001    21.9043   247.9991 </r>
       <r>     0.6826    21.4878   253.9230 </r>
       <r>     0.8652     0.0000   256.0000 </r>
       <r>     1.0478     0.0000   256.0000 </r>
       <r>     1.2304     0.0000   256.0000 </r>
       <r>     1.4129     0.0000   256.0000 </r>
       <r>     1.5955     0.0000   256.0000 </r>
       <r>     1.7781     0.0000   256.0000 </r>
       <r>     1.9606     0.0000   256.0000 </r>
       <r>     2.1432     0.0000   256.0000 </r>
       <r>     2.3258     0.0000   256.0000 </r>
       <r>     2.5083     0.0000   256.0000 </r>
       <r>     2.6909     0.0000   256.0000 </r>
       <r>     2.8735     0.0000   256.0000 </r>
       <r>     3.0560     0.0000   256.0000 </r>
       <r>     3.2386     0.0000   256.0000 </r>
      </set>
     </set>
    </array>
   </total>
  </dos>
 </calculation>
 <structure name="finalpos" >
  <crystal>
   <varray name="basis" >
    <v>      20.00000000       0.00000000       0.00000000 </v>
    <v>       0.00000000      20.00000000       0.00000000 </v>
    <v>       0.00000000       0.00000000      20.00000000 </v>
   </varray>
   <i name="volume">   8000.00000000 </i>
   <varray name="rec_basis" >
    <v>       0.05000000       0.00000000       0.00000000 </v>
    <v>       0.00000000       0.05000000       0.00000000 </v>
    <v>       0.00000000       0.00000000       0.05000000 </v>
   </varray>
  </crystal>
  <varray name="positions" >
   <v>       0.52307882       0.32955005       0.67474498 </v>
   <v>       0.43793752       0.56561110       0.32757008 </v>
   <v>       0.45581208       0.52423376       0.38051465 </v>
   <v>       0.47372925       0.61530131       0.44986522 </v>
   <v>       0.45595175       0.65963312       0.39935201 </v>
   <v>       0.43785737       0.63472201       0.33675972 </v>
   <v>       0.29334713       0.47671938       0.56830116 </v>
   <v>       0.49710163       0.37190466       0.62618823 </v>
   <v>       0.60227374       0.41933300       0.60593616 </v>
   <v>       0.63096398       0.37761922       0.65422416 </v>
   <v>       0.73964927       0.52855915       0.53463181 </v>
   <v>       0.70082162       0.56612858       0.49044049 </v>
   <v>       0.63257913       0.55363620       0.48652424 </v>
   <v>       0.63952130       0.46927713       0.56732841 </v>
   <v>       0.70843899       0.47974495       0.57314689 </v>
   <v>       0.59134754       0.33224398       0.68903016 </v>
   <v>       0.36211554       0.48866484       0.56417415 </v>
   <v>       0.40790931       0.62211625       0.69058213 </v>
   <v>       0.47619960       0.62606623       0.67660612 </v>
   <v>       0.50295190       0.58590820       0.62668073 </v>
   <v>       0.39825425       0.53800137       0.60426081 </v>
   <v>       0.36904589       0.57756069       0.65398228 </v>
   <v>       0.37289802       0.40579857       0.48223443 </v>
   <v>       0.30486503       0.39173492       0.48443166 </v>
   <v>       0.26422003       0.42785518       0.52821594 </v>
   <v>       0.48989745       0.29510618       0.70074864 </v>
   <v>       0.61334240       0.29968355       0.72673159 </v>
   <v>       0.68424189       0.38076917       0.66478776 </v>
   <v>       0.54225374       0.36233861       0.46129841 </v>
   <v>       0.31579090       0.57306911       0.66420366 </v>
   <v>       0.44416348       0.37118871       0.61364770 </v>
   <v>       0.42392665       0.66833230       0.29622671 </v>
   <v>       0.45642762       0.71313270       0.40950260 </v>
   <v>       0.48809132       0.63358802       0.49907234 </v>
   <v>       0.56912778       0.41808713       0.41480476 </v>
   <v>       0.73767440       0.44963919       0.60776512 </v>
   <v>       0.72277620       0.60481012       0.45904817 </v>
   <v>       0.45570253       0.47012894       0.37468790 </v>
   <v>       0.40614333       0.37888556       0.44852541 </v>
   <v>       0.28443799       0.35306162       0.45202062 </v>
   <v>       0.79326502       0.53703787       0.53892527 </v>
   <v>       0.55589708       0.58769132       0.61440612 </v>
   <v>       0.42412006       0.54328620       0.27986105 </v>
   <v>       0.50894741       0.65984570       0.70400156 </v>
   <v>       0.26265982       0.50568523       0.60265428 </v>
   <v>       0.21072272       0.41813760       0.53105039 </v>
   <v>       0.60090654       0.58197914       0.45254259 </v>
   <v>       0.38544357       0.65296704       0.72941133 </v>
   <v>       0.47424490       0.54794204       0.44140236 </v>
   <v>       0.40180479       0.45306079       0.52108436 </v>
   <v>       0.53520702       0.41608490       0.59173240 </v>
   <v>       0.46544808       0.54254992       0.59041194 </v>
   <v>       0.60138410       0.50650621       0.52397638 </v>
   <v>       0.53073984       0.40562607       0.44215451 </v>
   <v>       0.50088568       0.48087016       0.51934246 </v>
  </varray>
  <varray name="selective"  type="logical" >
   <v type="logical" >  T  T  T </v>
   <v type="logical" >  T  T  T </v>
   <v type="logical" >  T  T  T </v>
   <v type="logical" >  T  T  T </v>
   <v type="logical" >  T  T  T </v>
   <v type="logical" >  T  T  T </v>
   <v type="logical" >  T  T  T </v>
   <v type="logical" >  T  T  T </v>
   <v type="logical" >  T  T  T </v>
   <v type="logical" >  T  T  T </v>
   <v type="logical" >  T  T  T </v>
   <v type="logical" >  T  T  T </v>
   <v type="logical" >  T  T  T </v>
   <v type="logical" >  T  T  T </v>
   <v type="logical" >  T  T  T </v>
   <v type="logical" >  T  T  T </v>
   <v type="logical" >  T  T  T </v>
   <v type="logical" >  T  T  T </v>
   <v type="logical" >  T  T  T </v>
   <v type="logical" >  T  T  T </v>
   <v type="logical" >  T  T  T </v>
   <v type="logical" >  T  T  T </v>
   <v type="logical" >  T  T  T </v>
   <v type="logical" >  T  T  T </v>
   <v type="logical" >  T  T  T </v>
   <v type="logical" >  T  T  T </v>
   <v type="logical" >  T  T  T </v>
   <v type="logical" >  T  T  T </v>
   <v type="logical" >  T  T  T </v>
   <v type="logical" >  T  T  T </v>
   <v type="logical" >  T  T  T </v>
   <v type="logical" >  T  T  T </v>
   <v type="logical" >  T  T  T </v>
   <v type="logical" >  T  T  T </v>
   <v type="logical" >  T  T  T </v>
   <v type="logical" >  T  T  T </v>
   <v type="logical" >  T  T  T </v>
   <v type="logical" >  T  T  T </v>
   <v type="logical" >  T  T  T </v>
   <v type="logical" >  T  T  T </v>
   <v type="logical" >  T  T  T </v>
   <v type="logical" >  T  T  T </v>
   <v type="logical" >  T  T  T </v>
   <v type="logical" >  T  T  T </v>
   <v type="logical" >  T  T  T </v>
   <v type="logical" >  T  T  T </v>
   <v type="logical" >  T  T  T </v>
   <v type="logical" >  T  T  T </v>
   <v type="logical" >  T  T  T </v>
   <v type="logical" >  T  T  T </v>
   <v type="logical" >  T  T  T </v>
   <v type="logical" >  T  T  T </v>
   <v type="logical" >  T  T  T </v>
   <v type="logical" >  T  T  T </v>
   <v type="logical" >  T  T  T </v>
  </varray>
  <nose>
   <v>      -3.00000000       0.00000000       0.00010000       0.00010000 </v>
  </nose>
 </structure>
</modeling>
