  55  55   0   0
  0.1454545E+03  0.2000000E-08  0.2000000E-08  0.2000000E-08  0.5000000E-15
  1.000000000000000E-004
  CAR 
 c2_oh2_ruthenium_mol                    
      3.18436178    -51.54631119  301     -6.98642162      1.00000000
    -51.546  0.0000E+00  0.0000E+00  0.0000E+00  0.0000E+00
    -51.364  0.0000E+00  0.0000E+00  0.0000E+00  0.0000E+00
    -51.181  0.0000E+00  0.0000E+00  0.0000E+00  0.0000E+00
    -50.999  0.0000E+00  0.0000E+00  0.0000E+00  0.0000E+00
    -50.817  0.0000E+00  0.0000E+00  0.0000E+00  0.0000E+00
    -50.634  0.0000E+00  0.0000E+00  0.0000E+00  0.0000E+00
    -50.452  0.0000E+00  0.0000E+00  0.0000E+00  0.0000E+00
    -50.269  0.0000E+00  0.0000E+00  0.0000E+00  0.0000E+00
    -50.087  0.0000E+00  0.0000E+00  0.0000E+00  0.0000E+00
    -49.904  0.0000E+00  0.0000E+00  0.0000E+00  0.0000E+00
    -49.722  0.0000E+00  0.0000E+00  0.0000E+00  0.0000E+00
    -49.540  0.0000E+00  0.0000E+00  0.0000E+00  0.0000E+00
    -49.357  0.0000E+00  0.0000E+00  0.0000E+00  0.0000E+00
    -49.175  0.0000E+00  0.0000E+00  0.0000E+00  0.0000E+00
    -48.992  0.1096E+02  0.1096E+02  0.2000E+01  0.2000E+01
    -48.810  0.0000E+00  0.0000E+00  0.4000E+01  0.4000E+01
    -48.627  0.1096E+02  0.1096E+02  0.6000E+01  0.6000E+01
    -48.445  0.0000E+00  0.0000E+00  0.6000E+01  0.6000E+01
    -48.262  0.0000E+00  0.0000E+00  0.6000E+01  0.6000E+01
    -48.080  0.0000E+00  0.0000E+00  0.6000E+01  0.6000E+01
    -47.898  0.0000E+00  0.0000E+00  0.6000E+01  0.6000E+01
    -47.715  0.0000E+00  0.0000E+00  0.6000E+01  0.6000E+01
    -47.533  0.0000E+00  0.0000E+00  0.6000E+01  0.6000E+01
    -47.350  0.0000E+00  0.0000E+00  0.6000E+01  0.6000E+01
    -47.168  0.0000E+00  0.0000E+00  0.6000E+01  0.6000E+01
    -46.985  0.0000E+00  0.0000E+00  0.6000E+01  0.6000E+01
    -46.803  0.0000E+00  0.0000E+00  0.6000E+01  0.6000E+01
    -46.621  0.0000E+00  0.0000E+00  0.6000E+01  0.6000E+01
    -46.438  0.0000E+00  0.0000E+00  0.6000E+01  0.6000E+01
    -46.256  0.0000E+00  0.0000E+00  0.6000E+01  0.6000E+01
    -46.073  0.0000E+00  0.0000E+00  0.6000E+01  0.6000E+01
    -45.891  0.0000E+00  0.0000E+00  0.6000E+01  0.6000E+01
    -45.708  0.0000E+00  0.0000E+00  0.6000E+01  0.6000E+01
    -45.526  0.0000E+00  0.0000E+00  0.6000E+01  0.6000E+01
    -45.344  0.0000E+00  0.0000E+00  0.6000E+01  0.6000E+01
    -45.161  0.0000E+00  0.0000E+00  0.6000E+01  0.6000E+01
    -44.979  0.0000E+00  0.0000E+00  0.6000E+01  0.6000E+01
    -44.796  0.0000E+00  0.0000E+00  0.6000E+01  0.6000E+01
    -44.614  0.0000E+00  0.0000E+00  0.6000E+01  0.6000E+01
    -44.431  0.0000E+00  0.0000E+00  0.6000E+01  0.6000E+01
    -44.249  0.0000E+00  0.0000E+00  0.6000E+01  0.6000E+01
    -44.066  0.0000E+00  0.0000E+00  0.6000E+01  0.6000E+01
    -43.884  0.0000E+00  0.0000E+00  0.6000E+01  0.6000E+01
    -43.702  0.0000E+00  0.0000E+00  0.6000E+01  0.6000E+01
    -43.519  0.0000E+00  0.0000E+00  0.6000E+01  0.6000E+01
    -43.337  0.0000E+00  0.0000E+00  0.6000E+01  0.6000E+01
    -43.154  0.0000E+00  0.0000E+00  0.6000E+01  0.6000E+01
    -42.972  0.0000E+00  0.0000E+00  0.6000E+01  0.6000E+01
    -42.789  0.0000E+00  0.0000E+00  0.6000E+01  0.6000E+01
    -42.607  0.0000E+00  0.0000E+00  0.6000E+01  0.6000E+01
    -42.425  0.0000E+00  0.0000E+00  0.6000E+01  0.6000E+01
    -42.242  0.0000E+00  0.0000E+00  0.6000E+01  0.6000E+01
    -42.060  0.0000E+00  0.0000E+00  0.6000E+01  0.6000E+01
    -41.877  0.0000E+00  0.0000E+00  0.6000E+01  0.6000E+01
    -41.695  0.0000E+00  0.0000E+00  0.6000E+01  0.6000E+01
    -41.512  0.0000E+00  0.0000E+00  0.6000E+01  0.6000E+01
    -41.330  0.0000E+00  0.0000E+00  0.6000E+01  0.6000E+01
    -41.147  0.0000E+00  0.0000E+00  0.6000E+01  0.6000E+01
    -40.965  0.0000E+00  0.0000E+00  0.6000E+01  0.6000E+01
    -40.783  0.0000E+00  0.0000E+00  0.6000E+01  0.6000E+01
    -40.600  0.0000E+00  0.0000E+00  0.6000E+01  0.6000E+01
    -40.418  0.0000E+00  0.0000E+00  0.6000E+01  0.6000E+01
    -40.235  0.0000E+00  0.0000E+00  0.6000E+01  0.6000E+01
    -40.053  0.0000E+00  0.0000E+00  0.6000E+01  0.6000E+01
    -39.870  0.0000E+00  0.0000E+00  0.6000E+01  0.6000E+01
    -39.688  0.0000E+00  0.0000E+00  0.6000E+01  0.6000E+01
    -39.506  0.0000E+00  0.0000E+00  0.6000E+01  0.6000E+01
    -39.323  0.0000E+00  0.0000E+00  0.6000E+01  0.6000E+01
    -39.141  0.0000E+00  0.0000E+00  0.6000E+01  0.6000E+01
    -38.958  0.0000E+00  0.0000E+00  0.6000E+01  0.6000E+01
    -38.776  0.0000E+00  0.0000E+00  0.6000E+01  0.6000E+01
    -38.593  0.0000E+00  0.0000E+00  0.6000E+01  0.6000E+01
    -38.411  0.0000E+00  0.0000E+00  0.6000E+01  0.6000E+01
    -38.229  0.0000E+00  0.0000E+00  0.6000E+01  0.6000E+01
    -38.046  0.0000E+00  0.0000E+00  0.6000E+01  0.6000E+01
    -37.864  0.0000E+00  0.0000E+00  0.6000E+01  0.6000E+01
    -37.681  0.0000E+00  0.0000E+00  0.6000E+01  0.6000E+01
    -37.499  0.0000E+00  0.0000E+00  0.6000E+01  0.6000E+01
    -37.316  0.0000E+00  0.0000E+00  0.6000E+01  0.6000E+01
    -37.134  0.0000E+00  0.0000E+00  0.6000E+01  0.6000E+01
    -36.951  0.0000E+00  0.0000E+00  0.6000E+01  0.6000E+01
    -36.769  0.0000E+00  0.0000E+00  0.6000E+01  0.6000E+01
    -36.587  0.0000E+00  0.0000E+00  0.6000E+01  0.6000E+01
    -36.404  0.0000E+00  0.0000E+00  0.6000E+01  0.6000E+01
    -36.222  0.0000E+00  0.0000E+00  0.6000E+01  0.6000E+01
    -36.039  0.0000E+00  0.0000E+00  0.6000E+01  0.6000E+01
    -35.857  0.0000E+00  0.0000E+00  0.6000E+01  0.6000E+01
    -35.674  0.0000E+00  0.0000E+00  0.6000E+01  0.6000E+01
    -35.492  0.0000E+00  0.0000E+00  0.6000E+01  0.6000E+01
    -35.310  0.0000E+00  0.0000E+00  0.6000E+01  0.6000E+01
    -35.127  0.0000E+00  0.0000E+00  0.6000E+01  0.6000E+01
    -34.945  0.0000E+00  0.0000E+00  0.6000E+01  0.6000E+01
    -34.762  0.0000E+00  0.0000E+00  0.6000E+01  0.6000E+01
    -34.580  0.0000E+00  0.0000E+00  0.6000E+01  0.6000E+01
    -34.397  0.0000E+00  0.0000E+00  0.6000E+01  0.6000E+01
    -34.215  0.0000E+00  0.0000E+00  0.6000E+01  0.6000E+01
    -34.032  0.0000E+00  0.0000E+00  0.6000E+01  0.6000E+01
    -33.850  0.0000E+00  0.0000E+00  0.6000E+01  0.6000E+01
    -33.668  0.0000E+00  0.0000E+00  0.6000E+01  0.6000E+01
    -33.485  0.0000E+00  0.0000E+00  0.6000E+01  0.6000E+01
    -33.303  0.0000E+00  0.0000E+00  0.6000E+01  0.6000E+01
    -33.120  0.0000E+00  0.0000E+00  0.6000E+01  0.6000E+01
    -32.938  0.0000E+00  0.0000E+00  0.6000E+01  0.6000E+01
    -32.755  0.0000E+00  0.0000E+00  0.6000E+01  0.6000E+01
    -32.573  0.0000E+00  0.0000E+00  0.6000E+01  0.6000E+01
    -32.391  0.0000E+00  0.0000E+00  0.6000E+01  0.6000E+01
    -32.208  0.0000E+00  0.0000E+00  0.6000E+01  0.6000E+01
    -32.026  0.0000E+00  0.0000E+00  0.6000E+01  0.6000E+01
    -31.843  0.0000E+00  0.0000E+00  0.6000E+01  0.6000E+01
    -31.661  0.0000E+00  0.0000E+00  0.6000E+01  0.6000E+01
    -31.478  0.0000E+00  0.0000E+00  0.6000E+01  0.6000E+01
    -31.296  0.0000E+00  0.0000E+00  0.6000E+01  0.6000E+01
    -31.114  0.0000E+00  0.0000E+00  0.6000E+01  0.6000E+01
    -30.931  0.0000E+00  0.0000E+00  0.6000E+01  0.6000E+01
    -30.749  0.0000E+00  0.0000E+00  0.6000E+01  0.6000E+01
    -30.566  0.0000E+00  0.0000E+00  0.6000E+01  0.6000E+01
    -30.384  0.0000E+00  0.0000E+00  0.6000E+01  0.6000E+01
    -30.201  0.0000E+00  0.0000E+00  0.6000E+01  0.6000E+01
    -30.019  0.0000E+00  0.0000E+00  0.6000E+01  0.6000E+01
    -29.836  0.0000E+00  0.0000E+00  0.6000E+01  0.6000E+01
    -29.654  0.0000E+00  0.0000E+00  0.6000E+01  0.6000E+01
    -29.472  0.0000E+00  0.0000E+00  0.6000E+01  0.6000E+01
    -29.289  0.0000E+00  0.0000E+00  0.6000E+01  0.6000E+01
    -29.107  0.1096E+02  0.1096E+02  0.8000E+01  0.8000E+01
    -28.924  0.0000E+00  0.0000E+00  0.8000E+01  0.8000E+01
    -28.742  0.0000E+00  0.0000E+00  0.8000E+01  0.8000E+01
    -28.559  0.0000E+00  0.0000E+00  0.8000E+01  0.8000E+01
    -28.377  0.0000E+00  0.0000E+00  0.8000E+01  0.8000E+01
    -28.195  0.0000E+00  0.0000E+00  0.8000E+01  0.8000E+01
    -28.012  0.0000E+00  0.0000E+00  0.8000E+01  0.8000E+01
    -27.830  0.0000E+00  0.0000E+00  0.8000E+01  0.8000E+01
    -27.647  0.0000E+00  0.0000E+00  0.1000E+02  0.1000E+02
    -27.465  0.0000E+00  0.0000E+00  0.1000E+02  0.1000E+02
    -27.282  0.0000E+00  0.0000E+00  0.1000E+02  0.1000E+02
    -27.100  0.0000E+00  0.0000E+00  0.1000E+02  0.1000E+02
    -26.918  0.1095E+02  0.1095E+02  0.1200E+02  0.1200E+02
    -26.735  0.1096E+02  0.1096E+02  0.1400E+02  0.1400E+02
    -26.553  0.0000E+00  0.0000E+00  0.1400E+02  0.1400E+02
    -26.370  0.0000E+00  0.0000E+00  0.1400E+02  0.1400E+02
    -26.188  0.9448E+01  0.9448E+01  0.1572E+02  0.1572E+02
    -26.005  0.0000E+00  0.0000E+00  0.1800E+02  0.1800E+02
    -25.823  0.0000E+00  0.0000E+00  0.1800E+02  0.1800E+02
    -25.640  0.0000E+00  0.0000E+00  0.1800E+02  0.1800E+02
    -25.458  0.0000E+00  0.0000E+00  0.1800E+02  0.1800E+02
    -25.276  0.0000E+00  0.0000E+00  0.1800E+02  0.1800E+02
    -25.093  0.0000E+00  0.0000E+00  0.1800E+02  0.1800E+02
    -24.911  0.0000E+00  0.0000E+00  0.1800E+02  0.1800E+02
    -24.728  0.0000E+00  0.0000E+00  0.1800E+02  0.1800E+02
    -24.546  0.0000E+00  0.0000E+00  0.1800E+02  0.1800E+02
    -24.363  0.0000E+00  0.0000E+00  0.1800E+02  0.1800E+02
    -24.181  0.0000E+00  0.0000E+00  0.1800E+02  0.1800E+02
    -23.999  0.0000E+00  0.0000E+00  0.1800E+02  0.1800E+02
    -23.816  0.0000E+00  0.0000E+00  0.1800E+02  0.1800E+02
    -23.634  0.0000E+00  0.0000E+00  0.1800E+02  0.1800E+02
    -23.451  0.0000E+00  0.0000E+00  0.1800E+02  0.1800E+02
    -23.269  0.9172E+01  0.9172E+01  0.1967E+02  0.1967E+02
    -23.086  0.0000E+00  0.0000E+00  0.2000E+02  0.2000E+02
    -22.904  0.0000E+00  0.0000E+00  0.2000E+02  0.2000E+02
    -22.721  0.1096E+02  0.1096E+02  0.2200E+02  0.2200E+02
    -22.539  0.4625E-13  0.4625E-13  0.2200E+02  0.2200E+02
    -22.357  0.1802E+02  0.1802E+02  0.2729E+02  0.2729E+02
    -22.174  0.2178E+02  0.2178E+02  0.3397E+02  0.3397E+02
    -21.992  0.0000E+00  0.0000E+00  0.3400E+02  0.3400E+02
    -21.809  0.0000E+00  0.0000E+00  0.3400E+02  0.3400E+02
    -21.627  0.0000E+00  0.0000E+00  0.3400E+02  0.3400E+02
    -21.444  0.0000E+00  0.0000E+00  0.3400E+02  0.3400E+02
    -21.262  0.0000E+00  0.0000E+00  0.3400E+02  0.3400E+02
    -21.080  0.0000E+00  0.0000E+00  0.3400E+02  0.3400E+02
    -20.897  0.0000E+00  0.0000E+00  0.3400E+02  0.3400E+02
    -20.715  0.1096E+02  0.1096E+02  0.3800E+02  0.3800E+02
    -20.532  0.0000E+00  0.0000E+00  0.3800E+02  0.3800E+02
    -20.350  0.0000E+00  0.0000E+00  0.3800E+02  0.3800E+02
    -20.167  0.0000E+00  0.0000E+00  0.3800E+02  0.3800E+02
    -19.985  0.0000E+00  0.0000E+00  0.3800E+02  0.3800E+02
    -19.803  0.0000E+00  0.0000E+00  0.3800E+02  0.3800E+02
    -19.620  0.0000E+00  0.0000E+00  0.3800E+02  0.3800E+02
    -19.438  0.0000E+00  0.0000E+00  0.3800E+02  0.3800E+02
    -19.255  0.1732E-08  0.1732E-08  0.3800E+02  0.3800E+02
    -19.073  0.8452E-11  0.8452E-11  0.4000E+02  0.4000E+02
    -18.890  0.0000E+00  0.0000E+00  0.4200E+02  0.4200E+02
    -18.708  0.1597E+02  0.1597E+02  0.4491E+02  0.4491E+02
    -18.525  0.5041E-07  0.5041E-07  0.4600E+02  0.4600E+02
    -18.343  0.0000E+00  0.0000E+00  0.5000E+02  0.5000E+02
    -18.161  0.0000E+00  0.0000E+00  0.5000E+02  0.5000E+02
    -17.978  0.0000E+00  0.0000E+00  0.5000E+02  0.5000E+02
    -17.796  0.0000E+00  0.0000E+00  0.5000E+02  0.5000E+02
    -17.613  0.1261E+02  0.1261E+02  0.5230E+02  0.5230E+02
    -17.431  0.0000E+00  0.0000E+00  0.5400E+02  0.5400E+02
    -17.248  0.1096E+02  0.1096E+02  0.5800E+02  0.5800E+02
    -17.066  0.0000E+00  0.0000E+00  0.5800E+02  0.5800E+02
    -16.884  0.9491E+01  0.9491E+01  0.5973E+02  0.5973E+02
    -16.701  0.0000E+00  0.0000E+00  0.6000E+02  0.6000E+02
    -16.519  0.0000E+00  0.0000E+00  0.6200E+02  0.6200E+02
    -16.336  0.0000E+00  0.0000E+00  0.6200E+02  0.6200E+02
    -16.154  0.0000E+00  0.0000E+00  0.6200E+02  0.6200E+02
    -15.971  0.3690E-01  0.3690E-01  0.6201E+02  0.6201E+02
    -15.789  0.3870E-04  0.3870E-04  0.6400E+02  0.6400E+02
    -15.607  0.0000E+00  0.0000E+00  0.6600E+02  0.6600E+02
    -15.424  0.1096E+02  0.1096E+02  0.6800E+02  0.6800E+02
    -15.242  0.0000E+00  0.0000E+00  0.6800E+02  0.6800E+02
    -15.059  0.0000E+00  0.0000E+00  0.6800E+02  0.6800E+02
    -14.877  0.0000E+00  0.0000E+00  0.6800E+02  0.6800E+02
    -14.694  0.2381E+02  0.2381E+02  0.7434E+02  0.7434E+02
    -14.512  0.1096E+02  0.1096E+02  0.7800E+02  0.7800E+02
    -14.329  0.0000E+00  0.0000E+00  0.7800E+02  0.7800E+02
    -14.147  0.1096E+02  0.1096E+02  0.8000E+02  0.8000E+02
    -13.965  0.1096E+02  0.1096E+02  0.8400E+02  0.8400E+02
    -13.782  0.2733E+02  0.2733E+02  0.8899E+02  0.8899E+02
    -13.600  0.0000E+00  0.0000E+00  0.9200E+02  0.9200E+02
    -13.417  0.1097E+02  0.1097E+02  0.9400E+02  0.9400E+02
    -13.235  0.1625E-01  0.1625E-01  0.9600E+02  0.9600E+02
    -13.052  0.1985E-05  0.1985E-05  0.1000E+03  0.1000E+03
    -12.870  0.1096E+02  0.1096E+02  0.1040E+03  0.1040E+03
    -12.688  0.0000E+00  0.0000E+00  0.1080E+03  0.1080E+03
    -12.505  0.0000E+00  0.0000E+00  0.1100E+03  0.1100E+03
    -12.323  0.1096E+02  0.1096E+02  0.1140E+03  0.1140E+03
    -12.140  0.1968E+02  0.1968E+02  0.1176E+03  0.1176E+03
    -11.958  0.0000E+00  0.0000E+00  0.1180E+03  0.1180E+03
    -11.775  0.0000E+00  0.0000E+00  0.1200E+03  0.1200E+03
    -11.593  0.0000E+00  0.0000E+00  0.1200E+03  0.1200E+03
    -11.410  0.1096E+02  0.1096E+02  0.1220E+03  0.1220E+03
    -11.228  0.1096E+02  0.1096E+02  0.1260E+03  0.1260E+03
    -11.046  0.3289E+02  0.3289E+02  0.1320E+03  0.1320E+03
    -10.863  0.0000E+00  0.0000E+00  0.1320E+03  0.1320E+03
    -10.681  0.1096E+02  0.1096E+02  0.1340E+03  0.1340E+03
    -10.498  0.1096E+02  0.1096E+02  0.1360E+03  0.1360E+03
    -10.316  0.0000E+00  0.0000E+00  0.1380E+03  0.1380E+03
    -10.133  0.1096E+02  0.1096E+02  0.1420E+03  0.1420E+03
     -9.951  0.1089E+02  0.1089E+02  0.1440E+03  0.1440E+03
     -9.769  0.2171E+02  0.2171E+02  0.1500E+03  0.1500E+03
     -9.586  0.4887E-12  0.4887E-12  0.1540E+03  0.1540E+03
     -9.404  0.0000E+00  0.0000E+00  0.1560E+03  0.1560E+03
     -9.221  0.0000E+00  0.0000E+00  0.1560E+03  0.1560E+03
     -9.039  0.0000E+00  0.0000E+00  0.1560E+03  0.1560E+03
     -8.856  0.0000E+00  0.0000E+00  0.1560E+03  0.1560E+03
     -8.674  0.0000E+00  0.0000E+00  0.1560E+03  0.1560E+03
     -8.492  0.0000E+00  0.0000E+00  0.1560E+03  0.1560E+03
     -8.309  0.1096E+02  0.1096E+02  0.1600E+03  0.1600E+03
     -8.127  0.0000E+00  0.0000E+00  0.1600E+03  0.1600E+03
     -7.944  0.0000E+00  0.0000E+00  0.1600E+03  0.1600E+03
     -7.762  0.0000E+00  0.0000E+00  0.1600E+03  0.1600E+03
     -7.579  0.0000E+00  0.0000E+00  0.1600E+03  0.1600E+03
     -7.397  0.1096E+02  0.1096E+02  0.1620E+03  0.1620E+03
     -7.214  0.1096E+02  0.1096E+02  0.1640E+03  0.1640E+03
     -7.032  0.0000E+00  0.0000E+00  0.1660E+03  0.1660E+03
     -6.850  0.0000E+00  0.0000E+00  0.1660E+03  0.1660E+03
     -6.667  0.0000E+00  0.0000E+00  0.1660E+03  0.1660E+03
     -6.485  0.0000E+00  0.0000E+00  0.1660E+03  0.1660E+03
     -6.302  0.0000E+00  0.0000E+00  0.1660E+03  0.1660E+03
     -6.120  0.0000E+00  0.0000E+00  0.1660E+03  0.1660E+03
     -5.937  0.0000E+00  0.0000E+00  0.1660E+03  0.1660E+03
     -5.755  0.0000E+00  0.0000E+00  0.1660E+03  0.1660E+03
     -5.573  0.0000E+00  0.0000E+00  0.1660E+03  0.1660E+03
     -5.390  0.1096E+02  0.1096E+02  0.1680E+03  0.1680E+03
     -5.208  0.0000E+00  0.0000E+00  0.1680E+03  0.1680E+03
     -5.025  0.7053E+01  0.7053E+01  0.1693E+03  0.1693E+03
     -4.843  0.0000E+00  0.0000E+00  0.1720E+03  0.1720E+03
     -4.660  0.1096E+02  0.1096E+02  0.1740E+03  0.1740E+03
     -4.478  0.0000E+00  0.0000E+00  0.1740E+03  0.1740E+03
     -4.295  0.5783E+01  0.5783E+01  0.1751E+03  0.1751E+03
     -4.113  0.1330E+00  0.1330E+00  0.1760E+03  0.1760E+03
     -3.931  0.1096E+02  0.1096E+02  0.1820E+03  0.1820E+03
     -3.748  0.1096E+02  0.1096E+02  0.1840E+03  0.1840E+03
     -3.566  0.0000E+00  0.0000E+00  0.1840E+03  0.1840E+03
     -3.383  0.0000E+00  0.0000E+00  0.1840E+03  0.1840E+03
     -3.201  0.4115E+01  0.4115E+01  0.1848E+03  0.1848E+03
     -3.018  0.0000E+00  0.0000E+00  0.1860E+03  0.1860E+03
     -2.836  0.1096E+02  0.1096E+02  0.1880E+03  0.1880E+03
     -2.654  0.1096E+02  0.1096E+02  0.1920E+03  0.1920E+03
     -2.471  0.0000E+00  0.0000E+00  0.1920E+03  0.1920E+03
     -2.289  0.0000E+00  0.0000E+00  0.1920E+03  0.1920E+03
     -2.106  0.3043E-14  0.3043E-14  0.1920E+03  0.1920E+03
     -1.924  0.0000E+00  0.0000E+00  0.1940E+03  0.1940E+03
     -1.741  0.0000E+00  0.0000E+00  0.1940E+03  0.1940E+03
     -1.559  0.1095E+02  0.1095E+02  0.1980E+03  0.1980E+03
     -1.377  0.1096E+02  0.1096E+02  0.2000E+03  0.2000E+03
     -1.194  0.3678E+01  0.3675E+01  0.2007E+03  0.2007E+03
     -1.012  0.3762E+01  0.3761E+01  0.2047E+03  0.2047E+03
     -0.829  0.1096E+02  0.1096E+02  0.2120E+03  0.2120E+03
     -0.647  0.1096E+02  0.1096E+02  0.2160E+03  0.2160E+03
     -0.464  0.7365E+01  0.7364E+01  0.2193E+03  0.2193E+03
     -0.282  0.1096E+02  0.1096E+02  0.2260E+03  0.2260E+03
     -0.099  0.1248E+02  0.1248E+02  0.2303E+03  0.2303E+03
      0.083  0.9227E+00  0.9203E+00  0.2342E+03  0.2342E+03
      0.265  0.1096E+02  0.1096E+02  0.2380E+03  0.2380E+03
      0.448  0.1178E+02  0.1177E+02  0.2421E+03  0.2421E+03
      0.630  0.2228E+02  0.2227E+02  0.2501E+03  0.2501E+03
      0.813  0.0000E+00  0.0000E+00  0.2560E+03  0.2560E+03
      0.995  0.0000E+00  0.0000E+00  0.2560E+03  0.2560E+03
      1.178  0.0000E+00  0.0000E+00  0.2560E+03  0.2560E+03
      1.360  0.0000E+00  0.0000E+00  0.2560E+03  0.2560E+03
      1.542  0.0000E+00  0.0000E+00  0.2560E+03  0.2560E+03
      1.725  0.0000E+00  0.0000E+00  0.2560E+03  0.2560E+03
      1.907  0.0000E+00  0.0000E+00  0.2560E+03  0.2560E+03
      2.090  0.0000E+00  0.0000E+00  0.2560E+03  0.2560E+03
      2.272  0.0000E+00  0.0000E+00  0.2560E+03  0.2560E+03
      2.455  0.0000E+00  0.0000E+00  0.2560E+03  0.2560E+03
      2.637  0.0000E+00  0.0000E+00  0.2560E+03  0.2560E+03
      2.819  0.0000E+00  0.0000E+00  0.2560E+03  0.2560E+03
      3.002  0.0000E+00  0.0000E+00  0.2560E+03  0.2560E+03
      3.184  0.0000E+00  0.0000E+00  0.2560E+03  0.2560E+03
