   55   55    1    2
  0.1454545E+03  0.2000000E-08  0.2000000E-08  0.2000000E-08  0.5000000E-15
  1.000000000000000E-004
  CAR 
 c2_oh2_ruthenium_mol                    
    166      1    128
 
  0.0000000E+00  0.0000000E+00  0.0000000E+00  0.1000000E+01
    1      -49.058553    -49.058553
    2      -48.946800    -48.946800
    3      -48.700746    -48.700746
    4      -29.179657    -29.179657
    5      -27.750901    -27.750901
    6      -26.939333    -26.939333
    7      -26.790080    -26.790081
    8      -26.195462    -26.195462
    9      -26.129457    -26.129457
   10      -23.275731    -23.275731
   11      -22.747227    -22.747227
   12      -22.484180    -22.484180
   13      -22.412362    -22.412362
   14      -22.359219    -22.359219
   15      -22.302766    -22.302766
   16      -22.231276    -22.231276
   17      -22.189859    -22.189859
   18      -20.834217    -20.834217
   19      -20.790026    -20.790026
   20      -19.210732    -19.210732
   21      -19.022781    -19.022781
   22      -18.768333    -18.768333
   23      -18.707145    -18.707145
   24      -18.484849    -18.484849
   25      -18.441950    -18.441950
   26      -17.648984    -17.648984
   27      -17.605961    -17.605961
   28      -17.340359    -17.340359
   29      -17.291547    -17.291547
   30      -16.891376    -16.891376
   31      -16.636953    -16.636953
   32      -15.952212    -15.952212
   33      -15.757176    -15.757176
   34      -15.457616    -15.457616
   35      -14.804909    -14.804909
   36      -14.759308    -14.759308
   37      -14.741671    -14.741671
   38      -14.687635    -14.687635
   39      -14.559828    -14.559828
   40      -14.187003    -14.187003
   41      -14.055766    -14.055766
   42      -13.991819    -13.991819
   43      -13.842570    -13.842570
   44      -13.805840    -13.805840
   45      -13.782019    -13.782019
   46      -13.757905    -13.757905
   47      -13.465744    -13.465744
   48      -13.392807    -13.392807
   49      -13.213829    -13.213829
   50      -13.157637    -13.157637
   51      -13.016428    -13.016428
   52      -12.903964    -12.903964
   53      -12.810196    -12.810196
   54      -12.781023    -12.781023
   55      -12.595023    -12.595023
   56      -12.409326    -12.409326
   57      -12.384895    -12.384895
   58      -12.200774    -12.200774
   59      -12.146053    -12.146053
   60      -11.890491    -11.890491
   61      -11.472602    -11.472602
   62      -11.335992    -11.335992
   63      -11.267880    -11.267880
   64      -11.123045    -11.123045
   65      -11.111666    -11.111666
   66      -11.083593    -11.083593
   67      -10.722855    -10.722855
   68      -10.548901    -10.548901
   69      -10.468347    -10.468347
   70      -10.229489    -10.229489
   71      -10.184512    -10.184512
   72       -9.968490     -9.968490
   73       -9.860067     -9.860067
   74       -9.831722     -9.831722
   75       -9.783185     -9.783185
   76       -9.734120     -9.734120
   77       -9.691861     -9.691861
   78       -9.533407     -9.533407
   79       -8.432011     -8.432011
   80       -8.374798     -8.374798
   81       -7.429983     -7.429983
   82       -7.243918     -7.243918
   83       -7.123479     -7.123479
   84       -5.426223     -5.426223
   85       -5.027837     -5.027837
   86       -4.964921     -4.964921
   87       -4.726503     -4.726503
   88       -4.295984     -4.295984
   89       -4.097131     -4.097131
   90       -4.015975     -4.015975
   91       -3.958753     -3.958753
   92       -3.813487     -3.813487
   93       -3.198637     -3.198636
   94       -2.861927     -2.861929
   95       -2.809159     -2.809159
   96       -2.697092     -2.697092
   97       -2.048950     -2.048946
   98       -1.647975     -1.647973
   99       -1.580408     -1.580404
  100       -1.416556     -1.416552
  101       -1.191083     -1.191079
  102       -1.169566     -1.169559
  103       -1.008800     -1.008799
  104       -0.960542     -0.960536
  105       -0.916376     -0.916369
  106       -0.864668     -0.864661
  107       -0.754190     -0.754182
  108       -0.678002     -0.677997
  109       -0.586769     -0.586766
  110       -0.467496     -0.467495
  111       -0.412074     -0.412064
  112       -0.403540     -0.403531
  113       -0.317761     -0.317754
  114       -0.180468     -0.180460
  115       -0.173487     -0.173475
  116       -0.091784     -0.091774
  117       -0.011236     -0.011222
  118        0.092698      0.092708
  119        0.226513      0.226525
  120        0.332199      0.332202
  121        0.384550      0.384564
  122        0.458046      0.458056
  123        0.477121      0.477128
  124        0.554093      0.554097
  125        0.591661      0.591678
  126        0.643360      0.643379
  127        0.673312      0.673394
  128        0.695999      0.696604
