       N       E                     dE             d eps       ncg     rms          rms(c)
DAV:   1     0.909565840134E+03    0.90957E+03   -0.58812E+04   768   0.974E+02
DAV:   2    -0.680916416056E+02   -0.97766E+03   -0.97133E+03  1024   0.160E+02
DAV:   3    -0.390742586779E+03   -0.32265E+03   -0.32206E+03   768   0.848E+01
DAV:   4    -0.411439545933E+03   -0.20697E+02   -0.20665E+02   704   0.283E+01
DAV:   5    -0.411780133230E+03   -0.34059E+00   -0.34022E+00   832   0.371E+00    0.579E+01
DAV:   6    -0.393908250598E+03    0.17872E+02   -0.39615E+02   512   0.232E+01    0.395E+01
DAV:   7    -0.382911129145E+03    0.10997E+02   -0.22694E+01   768   0.213E+01    0.241E+01
DAV:   8    -0.378570583783E+03    0.43405E+01   -0.17264E+01   768   0.104E+01    0.978E+00
DAV:   9    -0.377345099831E+03    0.12255E+01   -0.40226E+00   768   0.439E+00    0.367E+00
DAV:  10    -0.377289170565E+03    0.55929E-01   -0.62567E-01   768   0.184E+00    0.255E+00
DAV:  11    -0.377158264415E+03    0.13091E+00   -0.14220E-01   768   0.941E-01    0.107E+00
DAV:  12    -0.377081550878E+03    0.76714E-01   -0.92690E-02   768   0.678E-01    0.707E-01
DAV:  13    -0.377066868025E+03    0.14683E-01   -0.11970E-02   768   0.297E-01    0.540E-01
DAV:  14    -0.377057469201E+03    0.93988E-02   -0.17260E-02   768   0.320E-01    0.297E-01
DAV:  15    -0.377058105453E+03   -0.63625E-03   -0.58252E-03   768   0.211E-01    0.239E-01
DAV:  16    -0.377064157891E+03   -0.60524E-02   -0.11321E-03   768   0.112E-01    0.182E-01
DAV:  17    -0.377071741919E+03   -0.75840E-02   -0.14901E-03   768   0.120E-01    0.857E-02
DAV:  18    -0.377077318745E+03   -0.55768E-02   -0.70093E-04   768   0.774E-02    0.762E-02
DAV:  19    -0.377081014630E+03   -0.36959E-02   -0.21241E-04   640   0.477E-02    0.461E-02
DAV:  20    -0.377083978557E+03   -0.29639E-02   -0.17338E-04   640   0.374E-02    0.254E-02
DAV:  21    -0.377085552449E+03   -0.15739E-02   -0.49345E-05   640   0.210E-02    0.169E-02
DAV:  22    -0.377086905619E+03   -0.13532E-02   -0.46339E-05   640   0.177E-02    0.111E-02
DAV:  23    -0.377087569019E+03   -0.66340E-03   -0.16467E-05   512   0.975E-03    0.829E-03
DAV:  24    -0.377087987230E+03   -0.41821E-03   -0.78403E-06   640   0.610E-03    0.528E-03
DAV:  25    -0.377088244398E+03   -0.25717E-03   -0.52120E-06   640   0.457E-03    0.265E-03
DAV:  26    -0.377088348897E+03   -0.10450E-03   -0.12914E-06   640   0.243E-03    0.174E-03
DAV:  27    -0.377088468832E+03   -0.11993E-03   -0.19812E-06   640   0.250E-03    0.121E-03
DAV:  28    -0.377088516519E+03   -0.47687E-04   -0.70616E-07   640   0.152E-03    0.742E-04
DAV:  29    -0.377088535297E+03   -0.18778E-04   -0.73158E-08   640   0.771E-04    0.475E-04
DAV:  30    -0.377088551594E+03   -0.16297E-04   -0.76671E-08   640   0.753E-04    0.285E-04
DAV:  31    -0.377088559642E+03   -0.80481E-05    0.24519E-08   640   0.521E-04
   1 F= -.37708856E+03 E0= -.37708856E+03  d E =-.148160E-83  mag=     0.0000
