<?xml version="1.0" encoding="ISO-8859-1"?>
<modeling>
 <generator>
  <i name="program" type="string">vasp </i>
  <i name="version" type="string">5.3.5  </i>
  <i name="subversion" type="string">31Mar14 (build Apr 08 2014 12:00:03) complex                          parallel </i>
  <i name="platform" type="string">NSC-NSCPATCH-BUILD02 </i>
  <i name="date" type="string">2017 03 15 </i>
  <i name="time" type="string">18:38:23 </i>
 </generator>
 <incar>
  <i type="string" name="SYSTEM"> c2_oh2_ruthenium_mol</i>
  <i type="int" name="ISTART">     0</i>
  <i type="string" name="PREC">accurate</i>
  <i type="int" name="IALGO">    38</i>
  <i type="logical" name="ADDGRID"> T  </i>
  <i type="int" name="ISPIN">     2</i>
  <i name="BMIX">      2.00000000</i>
  <i type="int" name="ICHARG">     2</i>
  <i name="EDIFF">      0.00001000</i>
  <i name="EDIFFG">     -0.01000000</i>
  <i name="ENCUT">    700.00000000</i>
  <i name="POTIM">      0.50000000</i>
  <i name="NUPDOWN">      0.00000000</i>
  <i name="NELECT">    166.00000000</i>
  <i type="string" name="LREAL"> Auto</i>
  <i name="TIME">      0.05000000</i>
  <i type="int" name="ISMEAR">     0</i>
  <i name="SIGMA">      0.01000000</i>
  <i type="int" name="ICORELEVEL">     2</i>
  <i type="int" name="CLNT">     1</i>
  <i type="int" name="CLN">     1</i>
  <i type="int" name="INCAR     ">     0</i>
  <i name="CLZ">      0.50000000</i>
 </incar>
 <kpoints>
  <generation param="Monkhorst-Pack">
   <v type="int" name="divisions">       1        1        1 </v>
   <v name="usershift">      0.00000000       0.00000000       0.00000000 </v>
   <v name="genvec1">      1.00000000       0.00000000       0.00000000 </v>
   <v name="genvec2">      0.00000000       1.00000000       0.00000000 </v>
   <v name="genvec3">      0.00000000       0.00000000       1.00000000 </v>
   <v name="shift">      0.00000000       0.00000000       0.00000000 </v>
  </generation>
  <varray name="kpointlist" >
   <v>       0.00000000       0.00000000       0.00000000 </v>
  </varray>
  <varray name="weights" >
   <v>       1.00000000 </v>
  </varray>
 </kpoints>
 <parameters>
  <separator name="general" >
   <i type="string" name="SYSTEM">c2_oh2_ruthenium_mol</i>
   <i type="logical" name="LCOMPAT"> F  </i>
  </separator>
  <separator name="electronic" >
   <i type="string" name="PREC">accura</i>
   <i name="ENMAX">    700.00000000</i>
   <i name="ENAUG">    946.76800000</i>
   <i name="EDIFF">      0.00001000</i>
   <i type="int" name="IALGO">    38</i>
   <i type="int" name="IWAVPR">    10</i>
   <i type="int" name="NBANDS">   128</i>
   <i name="NELECT">    166.00000000</i>
   <i type="int" name="TURBO">     0</i>
   <i type="int" name="IRESTART">     0</i>
   <i type="int" name="NREBOOT">     0</i>
   <i type="int" name="NMIN">     0</i>
   <i name="EREF">      0.00000000</i>
   <separator name="electronic smearing" >
    <i type="int" name="ISMEAR">     0</i>
    <i name="SIGMA">      0.01000000</i>
    <i name="KSPACING">      0.50000000</i>
    <i type="logical" name="KGAMMA"> T  </i>
   </separator>
   <separator name="electronic projectors" >
    <i type="logical" name="LREAL"> T  </i>
    <v name="ROPT">     -0.00025000     -0.00025000     -0.00025000     -0.00025000     -0.00025000     -0.00025000</v>
    <i type="int" name="LMAXPAW">  -100</i>
    <i type="int" name="LMAXMIX">     2</i>
    <i type="logical" name="NLSPLINE"> F  </i>
   </separator>
   <separator name="electronic startup" >
    <i type="int" name="ISTART">     0</i>
    <i type="int" name="ICHARG">     2</i>
    <i type="int" name="INIWAV">     1</i>
   </separator>
   <separator name="electronic spin" >
    <i type="int" name="ISPIN">     2</i>
    <i type="logical" name="LNONCOLLINEAR"> F  </i>
    <v name="MAGMOM">      0.00000000      0.00000000      0.00000000      0.00000000      0.00000000      0.00000000      0.00000000      0.00000000      0.00000000      0.00000000      0.00000000      0.00000000      0.00000000      0.00000000      0.00000000      0.00000000      0.00000000      0.00000000      0.00000000      0.00000000
      0.00000000      0.00000000      0.00000000      0.00000000      0.00000000      0.00000000      0.00000000      0.00000000      0.00000000      0.00000000      0.00000000      0.00000000      0.00000000      0.00000000      0.00000000      0.00000000      0.00000000      0.00000000      0.00000000      0.00000000
      0.00000000      0.00000000      0.00000000      0.00000000      0.00000000      0.00000000      0.00000000      0.00000000      0.00000000      0.00000000      0.00000000      0.00000000      0.00000000      0.00000000      0.00000000</v>
    <i name="NUPDOWN">      0.00000000</i>
    <i type="logical" name="LSORBIT"> F  </i>
    <v name="SAXIS">      0.00000000      0.00000000      1.00000000</v>
    <i type="logical" name="LSPIRAL"> F  </i>
    <v name="QSPIRAL">      0.00000000      0.00000000      0.00000000</v>
    <i type="logical" name="LZEROZ"> F  </i>
   </separator>
   <separator name="electronic exchange-correlation" >
    <i type="logical" name="LASPH"> F  </i>
    <i type="logical" name="LMETAGGA"> F  </i>
   </separator>
   <separator name="electronic convergence" >
    <i type="int" name="NELM">    60</i>
    <i type="int" name="NELMDL">    -5</i>
    <i type="int" name="NELMIN">     2</i>
    <i name="ENINI">    700.00000000</i>
    <separator name="electronic convergence detail" >
     <i type="logical" name="LDIAG"> T  </i>
     <i type="logical" name="LSUBROT"> F  </i>
     <i name="WEIMIN">      0.00000000</i>
     <i name="EBREAK">      0.00000002</i>
     <i name="DEPER">      0.30000000</i>
     <i type="int" name="NRMM">     4</i>
     <i name="TIME">      0.05000000</i>
    </separator>
   </separator>
   <separator name="electronic mixer" >
    <i name="AMIX">      0.40000000</i>
    <i name="BMIX">      2.00000000</i>
    <i name="AMIN">      0.10000000</i>
    <i name="AMIX_MAG">      1.60000000</i>
    <i name="BMIX_MAG">      2.00000000</i>
    <separator name="electronic mixer details" >
     <i type="int" name="IMIX">     4</i>
     <i type="int" name="MAXMIX">   -45</i>
     <i name="WC">    100.00000000</i>
     <i type="int" name="INIMIX">     1</i>
     <i type="int" name="MIXPRE">     1</i>
     <i type="int" name="MREMOVE">     5</i>
    </separator>
   </separator>
   <separator name="electronic dipolcorrection" >
    <i type="logical" name="LDIPOL"> F  </i>
    <i type="logical" name="LMONO"> F  </i>
    <i type="int" name="IDIPOL">     0</i>
    <i name="EPSILON">      1.00000000</i>
    <v name="DIPOL">   -100.00000000   -100.00000000   -100.00000000</v>
    <i name="EFIELD">      0.00000000</i>
   </separator>
  </separator>
  <separator name="grids" >
   <i type="int" name="NGX">   180</i>
   <i type="int" name="NGY">   180</i>
   <i type="int" name="NGZ">   180</i>
   <i type="int" name="NGXF">   360</i>
   <i type="int" name="NGYF">   360</i>
   <i type="int" name="NGZF">   360</i>
   <i type="logical" name="ADDGRID"> T  </i>
  </separator>
  <separator name="ionic" >
   <i type="int" name="NSW">     0</i>
   <i type="int" name="IBRION">    -1</i>
   <i type="int" name="ISIF">     2</i>
   <i name="PSTRESS">      0.00000000</i>
   <i name="EDIFFG">     -0.01000000</i>
   <i type="int" name="NFREE">     0</i>
   <i name="POTIM">      0.50000000</i>
   <i name="SMASS">     -3.00000000</i>
   <i name="SCALEE">      1.00000000</i>
  </separator>
  <separator name="ionic md" >
   <i name="TEBEG">      0.00010000</i>
   <i name="TEEND">      0.00010000</i>
   <i type="int" name="NBLOCK">     1</i>
   <i type="int" name="KBLOCK">     1</i>
   <i type="int" name="NPACO">   256</i>
   <i name="APACO">     16.00000000</i>
  </separator>
  <separator name="symmetry" >
   <i type="int" name="ISYM">     2</i>
   <i name="SYMPREC">      0.00001000</i>
  </separator>
  <separator name="dos" >
   <i type="logical" name="LORBIT"> F  </i>
   <v name="RWIGS">     -1.00000000     -1.00000000     -1.00000000     -1.00000000     -1.00000000     -1.00000000</v>
   <i type="int" name="NEDOS">   301</i>
   <i name="EMIN">     10.00000000</i>
   <i name="EMAX">    -10.00000000</i>
   <i name="EFERMI">      0.00000000</i>
  </separator>
  <separator name="writing" >
   <i type="int" name="NWRITE">     2</i>
   <i type="logical" name="LWAVE"> T  </i>
   <i type="logical" name="LCHARG"> T  </i>
   <i type="logical" name="LPARD"> F  </i>
   <i type="logical" name="LVTOT"> F  </i>
   <i type="logical" name="LVHAR"> F  </i>
   <i type="logical" name="LELF"> F  </i>
   <i type="logical" name="LOPTICS"> F  </i>
   <v name="STM">      0.00000000      0.00000000      0.00000000      0.00000000      0.00000000      0.00000000      0.00000000</v>
  </separator>
  <separator name="performance" >
   <i type="int" name="NPAR">    64</i>
   <i type="int" name="NSIM">     4</i>
   <i type="int" name="NBLK">    -1</i>
   <i type="logical" name="LPLANE"> T  </i>
   <i type="logical" name="LSCALAPACK"> T  </i>
   <i type="logical" name="LSCAAWARE"> F  </i>
   <i type="logical" name="LSCALU"> F  </i>
   <i type="logical" name="LASYNC"> F  </i>
   <i type="logical" name="LORBITALREAL"> F  </i>
  </separator>
  <separator name="miscellaneous" >
   <i type="int" name="IDIOT">     3</i>
   <i type="logical" name="LMUSIC"> F  </i>
   <v name="POMASS">     12.01100000     12.01100000      1.00000000     14.00100000     16.00000000    101.07000000</v>
   <v name="DARWINR">      0.00000000      0.00000000      0.00000000      0.00000000      0.00000000      0.00000000</v>
   <v name="DARWINV">      1.00000000      1.00000000      1.00000000      1.00000000      1.00000000      1.00000000</v>
   <i type="logical" name="LCORR"> T  </i>
  </separator>
  <i type="logical" name="GGA_COMPAT"> T  </i>
  <i type="logical" name="LBERRY"> F  </i>
  <i type="int" name="ICORELEVEL">     2</i>
  <i type="int" name="CLNT">     1</i>
  <i type="int" name="CLN">     1</i>
  <i type="int" name="CLL">     0</i>
  <i name="CLZ">      0.50000000</i>
  <i type="logical" name="LDAU"> F  </i>
  <i type="int" name="I_CONSTRAINED_M">     0</i>
  <separator name="electronic exchange-correlation" >
   <i type="string" name="GGA">--</i>
   <i type="int" name="VOSKOWN">     0</i>
   <i type="logical" name="LHFCALC"> F  </i>
   <i type="string" name="PRECFOCK"></i>
   <i type="logical" name="LSYMGRAD"> F  </i>
   <i type="logical" name="LHFONE"> F  </i>
   <i type="logical" name="LRHFCALC"> F  </i>
   <i type="logical" name="LTHOMAS"> F  </i>
   <i type="logical" name="LMODELHF"> F  </i>
   <i name="ENCUT4O">     -1.00000000</i>
   <i type="int" name="EXXOEP">     0</i>
   <i type="int" name="FOURORBIT">     0</i>
   <i name="AEXX">      0.00000000</i>
   <i name="HFALPHA">      0.00000000</i>
   <i name="MCALPHA">      0.00000000</i>
   <i name="ALDAX">      1.00000000</i>
   <i name="AGGAX">      1.00000000</i>
   <i name="ALDAC">      1.00000000</i>
   <i name="AGGAC">      1.00000000</i>
   <i type="int" name="NKREDX">     1</i>
   <i type="int" name="NKREDY">     1</i>
   <i type="int" name="NKREDZ">     1</i>
   <i type="logical" name="SHIFTRED"> F  </i>
   <i type="logical" name="ODDONLY"> F  </i>
   <i type="logical" name="EVENONLY"> F  </i>
   <i type="int" name="LMAXFOCK">     0</i>
   <i type="int" name="NMAXFOCKAE">     0</i>
   <i type="logical" name="LFOCKAEDFT"> F  </i>
   <i name="HFSCREEN">      0.00000000</i>
   <i name="HFSCREENC">      0.00000000</i>
   <i type="int" name="NBANDSGWLOW">     0</i>
  </separator>
  <separator name="vdW DFT" >
   <i type="logical" name="LUSE_VDW"> F  </i>
   <i name="Zab_VDW">     -0.84910000</i>
   <i name="PARAM1">      0.12340000</i>
   <i name="PARAM2">      1.00000000</i>
   <i name="PARAM3">      0.00000000</i>
  </separator>
  <separator name="model GW" >
   <i type="int" name="MODEL_GW">     0</i>
   <i name="MODEL_EPS0">     87.27272727</i>
   <i name="MODEL_ALPHA">      1.00000000</i>
  </separator>
  <separator name="linear response parameters" >
   <i type="logical" name="LEPSILON"> F  </i>
   <i type="logical" name="LRPA"> F  </i>
   <i type="logical" name="LNABLA"> F  </i>
   <i type="logical" name="LVEL"> F  </i>
   <i type="int" name="KINTER">     0</i>
   <i name="CSHIFT">      0.10000000</i>
   <i name="OMEGAMAX">     -1.00000000</i>
   <i name="DEG_THRESHOLD">      0.00200000</i>
  </separator>
  <separator name="orbital magnetization" >
   <i type="logical" name="NUCIND"> F  </i>
   <v name="MAGPOS">      0.00000000      0.00000000      0.00000000</v>
   <i type="logical" name="LNICSALL"> T  </i>
   <i type="logical" name="ORBITALMAG"> F  </i>
   <i type="logical" name="LMAGBLOCH"> F  </i>
   <i type="logical" name="LCHIMAG"> F  </i>
   <i type="logical" name="LGAUGE"> T  </i>
   <i type="int" name="MAGATOM">     0</i>
   <v name="MAGDIPOL">      0.00000000      0.00000000      0.00000000</v>
   <v name="AVECCONST">      0.00000000      0.00000000      0.00000000</v>
  </separator>
  <separator name="response functions" >
   <i type="logical" name="LADDER"> F  </i>
   <i type="logical" name="LFXC"> F  </i>
   <i type="logical" name="LHARTREE"> T  </i>
   <i type="int" name="IBSE">     0</i>
   <i type="logical" name="LTCTE"> F  </i>
   <i type="logical" name="LTETE"> F  </i>
   <i type="logical" name="LTRIPLET"> F  </i>
   <i type="logical" name="LFXCEPS"> F  </i>
   <i type="logical" name="LFXHEG"> F  </i>
   <i type="logical" name="L2ORDER"> F  </i>
   <i type="logical" name="LUSEW"> F  </i>
   <i name="ENCUTGW">     -2.00000000</i>
   <i name="ENCUTGWSOFT">     -2.00000000</i>
   <i name="ENCUTLF">     -1.00000000</i>
   <i type="int" name="LMAXMP2">    -1</i>
   <i name="SCISSOR">      0.00000000</i>
   <i type="int" name="NOMEGA">     0</i>
   <i type="int" name="NOMEGAR">     0</i>
   <i type="int" name="NBANDSGW">    -1</i>
   <i type="int" name="NBANDSO">    -1</i>
   <i type="int" name="NBANDSV">    -1</i>
   <i type="int" name="NELM">     1</i>
   <i type="int" name="DIM">     3</i>
   <i type="int" name="ANTIRES">     0</i>
   <i name="OMEGAMAX">    -30.00000000</i>
   <i name="OMEGAMIN">    -30.00000000</i>
   <i name="OMEGATL">   -200.00000000</i>
   <i type="int" name="OMEGAGRID">     0</i>
   <i name="CSHIFT">     -0.10000000</i>
   <i type="logical" name="SELFENERGY"> F  </i>
   <i type="logical" name="LSPECTRAL"> F  </i>
   <i type="logical" name="ODDONLYGW"> F  </i>
   <i type="logical" name="EVENONLYGW"> F  </i>
   <i type="int" name="NKREDLFX">     1</i>
   <i type="int" name="NKREDLFY">     1</i>
   <i type="int" name="NKREDLFZ">     1</i>
   <i type="int" name="MAXMEM">  1800</i>
   <i type="int" name="TELESCOPE">     0</i>
   <i type="int" name="TAUPAR">     1</i>
  </separator>
  <separator name="External order field" >
   <i name="OFIELD_KAPPA">      0.00000000</i>
   <v name="OFIELD_K">      0.00000000      0.00000000      0.00000000</v>
   <i name="OFIELD_Q6_NEAR">      0.00000000</i>
   <i name="OFIELD_Q6_FAR">      0.00000000</i>
   <i name="OFIELD_A">      0.00000000</i>
  </separator>
 </parameters>
 <atominfo>
  <atoms>      55 </atoms>
  <types>       6 </types>
  <array name="atoms" >
   <dimension dim="1">ion</dimension>
   <field type="string">element</field>
   <field type="int">atomtype</field>
   <set>
    <rc><c>C </c><c>   1</c></rc>
    <rc><c>C </c><c>   2</c></rc>
    <rc><c>C </c><c>   2</c></rc>
    <rc><c>C </c><c>   2</c></rc>
    <rc><c>C </c><c>   2</c></rc>
    <rc><c>C </c><c>   2</c></rc>
    <rc><c>C </c><c>   2</c></rc>
    <rc><c>C </c><c>   2</c></rc>
    <rc><c>C </c><c>   2</c></rc>
    <rc><c>C </c><c>   2</c></rc>
    <rc><c>C </c><c>   2</c></rc>
    <rc><c>C </c><c>   2</c></rc>
    <rc><c>C </c><c>   2</c></rc>
    <rc><c>C </c><c>   2</c></rc>
    <rc><c>C </c><c>   2</c></rc>
    <rc><c>C </c><c>   2</c></rc>
    <rc><c>C </c><c>   2</c></rc>
    <rc><c>C </c><c>   2</c></rc>
    <rc><c>C </c><c>   2</c></rc>
    <rc><c>C </c><c>   2</c></rc>
    <rc><c>C </c><c>   2</c></rc>
    <rc><c>C </c><c>   2</c></rc>
    <rc><c>C </c><c>   2</c></rc>
    <rc><c>C </c><c>   2</c></rc>
    <rc><c>C </c><c>   2</c></rc>
    <rc><c>H </c><c>   3</c></rc>
    <rc><c>H </c><c>   3</c></rc>
    <rc><c>H </c><c>   3</c></rc>
    <rc><c>H </c><c>   3</c></rc>
    <rc><c>H </c><c>   3</c></rc>
    <rc><c>H </c><c>   3</c></rc>
    <rc><c>H </c><c>   3</c></rc>
    <rc><c>H </c><c>   3</c></rc>
    <rc><c>H </c><c>   3</c></rc>
    <rc><c>H </c><c>   3</c></rc>
    <rc><c>H </c><c>   3</c></rc>
    <rc><c>H </c><c>   3</c></rc>
    <rc><c>H </c><c>   3</c></rc>
    <rc><c>H </c><c>   3</c></rc>
    <rc><c>H </c><c>   3</c></rc>
    <rc><c>H </c><c>   3</c></rc>
    <rc><c>H </c><c>   3</c></rc>
    <rc><c>H </c><c>   3</c></rc>
    <rc><c>H </c><c>   3</c></rc>
    <rc><c>H </c><c>   3</c></rc>
    <rc><c>H </c><c>   3</c></rc>
    <rc><c>H </c><c>   3</c></rc>
    <rc><c>H </c><c>   3</c></rc>
    <rc><c>N </c><c>   4</c></rc>
    <rc><c>N </c><c>   4</c></rc>
    <rc><c>N </c><c>   4</c></rc>
    <rc><c>N </c><c>   4</c></rc>
    <rc><c>N </c><c>   4</c></rc>
    <rc><c>O </c><c>   5</c></rc>
    <rc><c>Ru</c><c>   6</c></rc>
   </set>
  </array>
  <array name="atomtypes" >
   <dimension dim="1">type</dimension>
   <field type="int">atomspertype</field>
   <field type="string">element</field>
   <field>mass</field>
   <field>valence</field>
   <field type="string">pseudopotential</field>
   <set>
    <rc><c>   1</c><c>C </c><c>     12.01100000</c><c>      4.50000000</c><c>  PAW_PBE C_h 06Feb2004                 </c></rc>
    <rc><c>  24</c><c>C </c><c>     12.01100000</c><c>      4.00000000</c><c>  PAW_PBE C_h 06Feb2004                 </c></rc>
    <rc><c>  23</c><c>H </c><c>      1.00000000</c><c>      1.00000000</c><c>  PAW_PBE H 15Jun2001                   </c></rc>
    <rc><c>   5</c><c>N </c><c>     14.00100000</c><c>      5.00000000</c><c>  PAW_PBE N_h 06Feb2004                 </c></rc>
    <rc><c>   1</c><c>O </c><c>     16.00000000</c><c>      6.00000000</c><c>  PAW_PBE O_h 06Feb2004                 </c></rc>
    <rc><c>   1</c><c>Ru</c><c>    101.07000000</c><c>     14.00000000</c><c>  PAW_PBE Ru_pv 28Jan2005               </c></rc>
   </set>
  </array>
 </atominfo>
 <structure name="initialpos" >
  <crystal>
   <varray name="basis" >
    <v>      20.00000000       0.00000000       0.00000000 </v>
    <v>       0.00000000      20.00000000       0.00000000 </v>
    <v>       0.00000000       0.00000000      20.00000000 </v>
   </varray>
   <i name="volume">   8000.00000000 </i>
   <varray name="rec_basis" >
    <v>       0.05000000       0.00000000       0.00000000 </v>
    <v>       0.00000000       0.05000000       0.00000000 </v>
    <v>       0.00000000       0.00000000       0.05000000 </v>
   </varray>
  </crystal>
  <varray name="positions" >
   <v>       0.47372925       0.61530131       0.44986522 </v>
   <v>       0.43793752       0.56561110       0.32757008 </v>
   <v>       0.45581208       0.52423376       0.38051465 </v>
   <v>       0.29334713       0.47671938       0.56830116 </v>
   <v>       0.45595175       0.65963312       0.39935201 </v>
   <v>       0.43785737       0.63472201       0.33675972 </v>
   <v>       0.52307882       0.32955005       0.67474498 </v>
   <v>       0.49710163       0.37190466       0.62618823 </v>
   <v>       0.60227374       0.41933300       0.60593616 </v>
   <v>       0.63096398       0.37761922       0.65422416 </v>
   <v>       0.73964927       0.52855915       0.53463181 </v>
   <v>       0.70082162       0.56612858       0.49044049 </v>
   <v>       0.63257913       0.55363620       0.48652424 </v>
   <v>       0.63952130       0.46927713       0.56732841 </v>
   <v>       0.70843899       0.47974495       0.57314689 </v>
   <v>       0.59134754       0.33224398       0.68903016 </v>
   <v>       0.36211554       0.48866484       0.56417415 </v>
   <v>       0.40790931       0.62211625       0.69058213 </v>
   <v>       0.47619960       0.62606623       0.67660612 </v>
   <v>       0.50295190       0.58590820       0.62668073 </v>
   <v>       0.39825425       0.53800137       0.60426081 </v>
   <v>       0.36904589       0.57756069       0.65398228 </v>
   <v>       0.37289802       0.40579857       0.48223443 </v>
   <v>       0.30486503       0.39173492       0.48443166 </v>
   <v>       0.26422003       0.42785518       0.52821594 </v>
   <v>       0.48989745       0.29510618       0.70074864 </v>
   <v>       0.61334240       0.29968355       0.72673159 </v>
   <v>       0.68424189       0.38076917       0.66478776 </v>
   <v>       0.54225374       0.36233861       0.46129841 </v>
   <v>       0.31579090       0.57306911       0.66420366 </v>
   <v>       0.44416348       0.37118871       0.61364770 </v>
   <v>       0.42392665       0.66833230       0.29622671 </v>
   <v>       0.45642762       0.71313270       0.40950260 </v>
   <v>       0.48809132       0.63358802       0.49907234 </v>
   <v>       0.56912778       0.41808713       0.41480476 </v>
   <v>       0.73767440       0.44963919       0.60776512 </v>
   <v>       0.72277620       0.60481012       0.45904817 </v>
   <v>       0.45570253       0.47012894       0.37468790 </v>
   <v>       0.40614333       0.37888556       0.44852541 </v>
   <v>       0.28443799       0.35306162       0.45202062 </v>
   <v>       0.79326502       0.53703787       0.53892527 </v>
   <v>       0.55589708       0.58769132       0.61440612 </v>
   <v>       0.42412006       0.54328620       0.27986105 </v>
   <v>       0.50894741       0.65984570       0.70400156 </v>
   <v>       0.26265982       0.50568523       0.60265428 </v>
   <v>       0.21072272       0.41813760       0.53105039 </v>
   <v>       0.60090654       0.58197914       0.45254259 </v>
   <v>       0.38544357       0.65296704       0.72941133 </v>
   <v>       0.47424490       0.54794204       0.44140236 </v>
   <v>       0.40180479       0.45306079       0.52108436 </v>
   <v>       0.53520702       0.41608490       0.59173240 </v>
   <v>       0.46544808       0.54254992       0.59041194 </v>
   <v>       0.60138410       0.50650621       0.52397638 </v>
   <v>       0.53073984       0.40562607       0.44215451 </v>
   <v>       0.50088568       0.48087016       0.51934246 </v>
  </varray>
  <varray name="selective"  type="logical" >
   <v type="logical" >  T  T  T </v>
   <v type="logical" >  T  T  T </v>
   <v type="logical" >  T  T  T </v>
   <v type="logical" >  T  T  T </v>
   <v type="logical" >  T  T  T </v>
   <v type="logical" >  T  T  T </v>
   <v type="logical" >  T  T  T </v>
   <v type="logical" >  T  T  T </v>
   <v type="logical" >  T  T  T </v>
   <v type="logical" >  T  T  T </v>
   <v type="logical" >  T  T  T </v>
   <v type="logical" >  T  T  T </v>
   <v type="logical" >  T  T  T </v>
   <v type="logical" >  T  T  T </v>
   <v type="logical" >  T  T  T </v>
   <v type="logical" >  T  T  T </v>
   <v type="logical" >  T  T  T </v>
   <v type="logical" >  T  T  T </v>
   <v type="logical" >  T  T  T </v>
   <v type="logical" >  T  T  T </v>
   <v type="logical" >  T  T  T </v>
   <v type="logical" >  T  T  T </v>
   <v type="logical" >  T  T  T </v>
   <v type="logical" >  T  T  T </v>
   <v type="logical" >  T  T  T </v>
   <v type="logical" >  T  T  T </v>
   <v type="logical" >  T  T  T </v>
   <v type="logical" >  T  T  T </v>
   <v type="logical" >  T  T  T </v>
   <v type="logical" >  T  T  T </v>
   <v type="logical" >  T  T  T </v>
   <v type="logical" >  T  T  T </v>
   <v type="logical" >  T  T  T </v>
   <v type="logical" >  T  T  T </v>
   <v type="logical" >  T  T  T </v>
   <v type="logical" >  T  T  T </v>
   <v type="logical" >  T  T  T </v>
   <v type="logical" >  T  T  T </v>
   <v type="logical" >  T  T  T </v>
   <v type="logical" >  T  T  T </v>
   <v type="logical" >  T  T  T </v>
   <v type="logical" >  T  T  T </v>
   <v type="logical" >  T  T  T </v>
   <v type="logical" >  T  T  T </v>
   <v type="logical" >  T  T  T </v>
   <v type="logical" >  T  T  T </v>
   <v type="logical" >  T  T  T </v>
   <v type="logical" >  T  T  T </v>
   <v type="logical" >  T  T  T </v>
   <v type="logical" >  T  T  T </v>
   <v type="logical" >  T  T  T </v>
   <v type="logical" >  T  T  T </v>
   <v type="logical" >  T  T  T </v>
   <v type="logical" >  T  T  T </v>
   <v type="logical" >  T  T  T </v>
  </varray>
  <nose>
   <v>      -3.00000000       0.00000000       0.00010000       0.00010000 </v>
  </nose>
 </structure>
 <calculation>
  <scstep>
   <time name="dav">   14.80   15.72</time>
   <time name="total">   22.35   23.31</time>
   <energy>
    <i name="alphaZ">     12.91687988 </i>
    <i name="ewald">  23318.00647701 </i>
    <i name="hartreedc"> -28920.03998574 </i>
    <i name="XCdc">    400.96469574 </i>
    <i name="pawpsdc">   5890.45591622 </i>
    <i name="pawaedc">  -5710.10246236 </i>
    <i name="eentropy">     -0.00002851 </i>
    <i name="bandstr">  -1676.03556331 </i>
    <i name="atom">   7593.39991119 </i>
    <i name="e_fr_energy">    909.56584013 </i>
    <i name="e_wo_entrp">    909.56586864 </i>
    <i name="e_0_energy">    909.56585439 </i>
   </energy>
  </scstep>
  <scstep>
   <time name="dav">   19.29   20.39</time>
   <time name="total">   19.30   20.40</time>
   <energy>
    <i name="e_fr_energy">    -68.09164161 </i>
    <i name="e_wo_entrp">    -68.09164161 </i>
    <i name="e_0_energy">    -68.09164161 </i>
   </energy>
  </scstep>
  <scstep>
   <time name="dav">   15.09   16.01</time>
   <time name="total">   15.10   16.02</time>
   <energy>
    <i name="e_fr_energy">   -390.74258678 </i>
    <i name="e_wo_entrp">   -390.74258678 </i>
    <i name="e_0_energy">   -390.74258678 </i>
   </energy>
  </scstep>
  <scstep>
   <time name="dav">   13.76   14.61</time>
   <time name="total">   13.77   14.62</time>
   <energy>
    <i name="e_fr_energy">   -411.43954593 </i>
    <i name="e_wo_entrp">   -411.43954593 </i>
    <i name="e_0_energy">   -411.43954593 </i>
   </energy>
  </scstep>
  <scstep>
   <time name="dav">   16.00   16.96</time>
   <time name="total">   21.26   22.25</time>
   <energy>
    <i name="e_fr_energy">   -411.78013323 </i>
    <i name="e_wo_entrp">   -411.78013323 </i>
    <i name="e_0_energy">   -411.78013323 </i>
   </energy>
  </scstep>
  <scstep>
   <time name="dav">   10.91   11.58</time>
   <time name="total">   23.71   24.46</time>
   <energy>
    <i name="e_fr_energy">   -393.90825060 </i>
    <i name="e_wo_entrp">   -393.90825060 </i>
    <i name="e_0_energy">   -393.90825060 </i>
   </energy>
  </scstep>
  <scstep>
   <time name="dav">   15.21   16.49</time>
   <time name="total">   27.93   29.26</time>
   <energy>
    <i name="e_fr_energy">   -382.91112915 </i>
    <i name="e_wo_entrp">   -382.91112915 </i>
    <i name="e_0_energy">   -382.91112915 </i>
   </energy>
  </scstep>
  <scstep>
   <time name="dav">   15.33   16.64</time>
   <time name="total">   27.94   29.32</time>
   <energy>
    <i name="e_fr_energy">   -378.57058378 </i>
    <i name="e_wo_entrp">   -378.57058378 </i>
    <i name="e_0_energy">   -378.57058378 </i>
   </energy>
  </scstep>
  <scstep>
   <time name="dav">   15.05   16.33</time>
   <time name="total">   27.79   29.14</time>
   <energy>
    <i name="e_fr_energy">   -377.34509983 </i>
    <i name="e_wo_entrp">   -377.34509983 </i>
    <i name="e_0_energy">   -377.34509983 </i>
   </energy>
  </scstep>
  <scstep>
   <time name="dav">   15.37   16.70</time>
   <time name="total">   28.25   29.64</time>
   <energy>
    <i name="e_fr_energy">   -377.28917056 </i>
    <i name="e_wo_entrp">   -377.28917056 </i>
    <i name="e_0_energy">   -377.28917056 </i>
   </energy>
  </scstep>
  <scstep>
   <time name="dav">   15.05   16.30</time>
   <time name="total">   27.84   29.14</time>
   <energy>
    <i name="e_fr_energy">   -377.15826442 </i>
    <i name="e_wo_entrp">   -377.15826442 </i>
    <i name="e_0_energy">   -377.15826442 </i>
   </energy>
  </scstep>
  <scstep>
   <time name="dav">   15.31   16.58</time>
   <time name="total">   28.21   29.51</time>
   <energy>
    <i name="e_fr_energy">   -377.08155088 </i>
    <i name="e_wo_entrp">   -377.08155088 </i>
    <i name="e_0_energy">   -377.08155088 </i>
   </energy>
  </scstep>
  <scstep>
   <time name="dav">   15.03   16.29</time>
   <time name="total">   27.88   29.17</time>
   <energy>
    <i name="e_fr_energy">   -377.06686802 </i>
    <i name="e_wo_entrp">   -377.06686802 </i>
    <i name="e_0_energy">   -377.06686802 </i>
   </energy>
  </scstep>
  <scstep>
   <time name="dav">   15.36   16.65</time>
   <time name="total">   28.24   29.58</time>
   <energy>
    <i name="e_fr_energy">   -377.05746920 </i>
    <i name="e_wo_entrp">   -377.05746920 </i>
    <i name="e_0_energy">   -377.05746920 </i>
   </energy>
  </scstep>
  <scstep>
   <time name="dav">   15.02   16.30</time>
   <time name="total">   27.75   29.09</time>
   <energy>
    <i name="e_fr_energy">   -377.05810545 </i>
    <i name="e_wo_entrp">   -377.05810545 </i>
    <i name="e_0_energy">   -377.05810545 </i>
   </energy>
  </scstep>
  <scstep>
   <time name="dav">   15.18   16.44</time>
   <time name="total">   28.24   29.53</time>
   <energy>
    <i name="e_fr_energy">   -377.06415789 </i>
    <i name="e_wo_entrp">   -377.06415789 </i>
    <i name="e_0_energy">   -377.06415789 </i>
   </energy>
  </scstep>
  <scstep>
   <time name="dav">   15.03   16.29</time>
   <time name="total">   27.93   29.25</time>
   <energy>
    <i name="e_fr_energy">   -377.07174192 </i>
    <i name="e_wo_entrp">   -377.07174192 </i>
    <i name="e_0_energy">   -377.07174192 </i>
   </energy>
  </scstep>
  <scstep>
   <time name="dav">   15.24   16.48</time>
   <time name="total">   28.18   29.49</time>
   <energy>
    <i name="e_fr_energy">   -377.07731875 </i>
    <i name="e_wo_entrp">   -377.07731875 </i>
    <i name="e_0_energy">   -377.07731875 </i>
   </energy>
  </scstep>
  <scstep>
   <time name="dav">   12.90   14.02</time>
   <time name="total">   25.76   26.92</time>
   <energy>
    <i name="e_fr_energy">   -377.08101463 </i>
    <i name="e_wo_entrp">   -377.08101463 </i>
    <i name="e_0_energy">   -377.08101463 </i>
   </energy>
  </scstep>
  <scstep>
   <time name="dav">   13.02   13.91</time>
   <time name="total">   25.83   26.74</time>
   <energy>
    <i name="e_fr_energy">   -377.08397856 </i>
    <i name="e_wo_entrp">   -377.08397856 </i>
    <i name="e_0_energy">   -377.08397856 </i>
   </energy>
  </scstep>
  <scstep>
   <time name="dav">   13.00   14.17</time>
   <time name="total">   26.06   27.28</time>
   <energy>
    <i name="e_fr_energy">   -377.08555245 </i>
    <i name="e_wo_entrp">   -377.08555245 </i>
    <i name="e_0_energy">   -377.08555245 </i>
   </energy>
  </scstep>
  <scstep>
   <time name="dav">   12.95   13.81</time>
   <time name="total">   25.83   26.73</time>
   <energy>
    <i name="e_fr_energy">   -377.08690562 </i>
    <i name="e_wo_entrp">   -377.08690562 </i>
    <i name="e_0_energy">   -377.08690562 </i>
   </energy>
  </scstep>
  <scstep>
   <time name="dav">   11.11   12.25</time>
   <time name="total">   24.04   25.21</time>
   <energy>
    <i name="e_fr_energy">   -377.08756902 </i>
    <i name="e_wo_entrp">   -377.08756902 </i>
    <i name="e_0_energy">   -377.08756902 </i>
   </energy>
  </scstep>
  <scstep>
   <time name="dav">   13.11   14.24</time>
   <time name="total">   26.00   27.21</time>
   <energy>
    <i name="e_fr_energy">   -377.08798723 </i>
    <i name="e_wo_entrp">   -377.08798723 </i>
    <i name="e_0_energy">   -377.08798723 </i>
   </energy>
  </scstep>
  <scstep>
   <time name="dav">   13.27   14.46</time>
   <time name="total">   26.07   27.34</time>
   <energy>
    <i name="e_fr_energy">   -377.08824440 </i>
    <i name="e_wo_entrp">   -377.08824440 </i>
    <i name="e_0_energy">   -377.08824440 </i>
   </energy>
  </scstep>
  <scstep>
   <time name="dav">   13.11   14.28</time>
   <time name="total">   25.99   27.20</time>
   <energy>
    <i name="e_fr_energy">   -377.08834890 </i>
    <i name="e_wo_entrp">   -377.08834890 </i>
    <i name="e_0_energy">   -377.08834890 </i>
   </energy>
  </scstep>
  <scstep>
   <time name="dav">   13.43   14.60</time>
   <time name="total">   26.52   27.72</time>
   <energy>
    <i name="e_fr_energy">   -377.08846883 </i>
    <i name="e_wo_entrp">   -377.08846883 </i>
    <i name="e_0_energy">   -377.08846883 </i>
   </energy>
  </scstep>
  <scstep>
   <time name="dav">   13.22   14.38</time>
   <time name="total">   26.12   27.32</time>
   <energy>
    <i name="e_fr_energy">   -377.08851652 </i>
    <i name="e_wo_entrp">   -377.08851652 </i>
    <i name="e_0_energy">   -377.08851652 </i>
   </energy>
  </scstep>
  <scstep>
   <time name="dav">   13.20   14.37</time>
   <time name="total">   26.17   27.38</time>
   <energy>
    <i name="e_fr_energy">   -377.08853530 </i>
    <i name="e_wo_entrp">   -377.08853530 </i>
    <i name="e_0_energy">   -377.08853530 </i>
   </energy>
  </scstep>
  <scstep>
   <time name="dav">   13.10   14.28</time>
   <time name="total">   26.11   27.38</time>
   <energy>
    <i name="e_fr_energy">   -377.08855159 </i>
    <i name="e_wo_entrp">   -377.08855159 </i>
    <i name="e_0_energy">   -377.08855159 </i>
   </energy>
  </scstep>
  <scstep>
   <time name="dav">   13.38   14.54</time>
   <time name="total">   20.92   22.12</time>
   <energy>
    <i name="alphaZ">     12.91687988 </i>
    <i name="ewald">  23318.00647701 </i>
    <i name="hartreedc"> -29158.07820132 </i>
    <i name="XCdc">    424.27186601 </i>
    <i name="pawpsdc">  81178.30168030 </i>
    <i name="pawaedc"> -81005.03474837 </i>
    <i name="eentropy">     -0.00000000 </i>
    <i name="bandstr">  -2740.87242434 </i>
    <i name="atom">   7593.39991119 </i>
    <i name="e_fr_energy">   -377.08855964 </i>
    <i name="e_wo_entrp">   -377.08855964 </i>
    <i name="e_0_energy">   -377.08855964 </i>
   </energy>
  </scstep>
  <structure>
   <crystal>
    <varray name="basis" >
     <v>      20.00000000       0.00000000       0.00000000 </v>
     <v>       0.00000000      20.00000000       0.00000000 </v>
     <v>       0.00000000       0.00000000      20.00000000 </v>
    </varray>
    <i name="volume">   8000.00000000 </i>
    <varray name="rec_basis" >
     <v>       0.05000000       0.00000000       0.00000000 </v>
     <v>       0.00000000       0.05000000       0.00000000 </v>
     <v>       0.00000000       0.00000000       0.05000000 </v>
    </varray>
   </crystal>
   <varray name="positions" >
    <v>       0.47372925       0.61530131       0.44986522 </v>
    <v>       0.43793752       0.56561110       0.32757008 </v>
    <v>       0.45581208       0.52423376       0.38051465 </v>
    <v>       0.29334713       0.47671938       0.56830116 </v>
    <v>       0.45595175       0.65963312       0.39935201 </v>
    <v>       0.43785737       0.63472201       0.33675972 </v>
    <v>       0.52307882       0.32955005       0.67474498 </v>
    <v>       0.49710163       0.37190466       0.62618823 </v>
    <v>       0.60227374       0.41933300       0.60593616 </v>
    <v>       0.63096398       0.37761922       0.65422416 </v>
    <v>       0.73964927       0.52855915       0.53463181 </v>
    <v>       0.70082162       0.56612858       0.49044049 </v>
    <v>       0.63257913       0.55363620       0.48652424 </v>
    <v>       0.63952130       0.46927713       0.56732841 </v>
    <v>       0.70843899       0.47974495       0.57314689 </v>
    <v>       0.59134754       0.33224398       0.68903016 </v>
    <v>       0.36211554       0.48866484       0.56417415 </v>
    <v>       0.40790931       0.62211625       0.69058213 </v>
    <v>       0.47619960       0.62606623       0.67660612 </v>
    <v>       0.50295190       0.58590820       0.62668073 </v>
    <v>       0.39825425       0.53800137       0.60426081 </v>
    <v>       0.36904589       0.57756069       0.65398228 </v>
    <v>       0.37289802       0.40579857       0.48223443 </v>
    <v>       0.30486503       0.39173492       0.48443166 </v>
    <v>       0.26422003       0.42785518       0.52821594 </v>
    <v>       0.48989745       0.29510618       0.70074864 </v>
    <v>       0.61334240       0.29968355       0.72673159 </v>
    <v>       0.68424189       0.38076917       0.66478776 </v>
    <v>       0.54225374       0.36233861       0.46129841 </v>
    <v>       0.31579090       0.57306911       0.66420366 </v>
    <v>       0.44416348       0.37118871       0.61364770 </v>
    <v>       0.42392665       0.66833230       0.29622671 </v>
    <v>       0.45642762       0.71313270       0.40950260 </v>
    <v>       0.48809132       0.63358802       0.49907234 </v>
    <v>       0.56912778       0.41808713       0.41480476 </v>
    <v>       0.73767440       0.44963919       0.60776512 </v>
    <v>       0.72277620       0.60481012       0.45904817 </v>
    <v>       0.45570253       0.47012894       0.37468790 </v>
    <v>       0.40614333       0.37888556       0.44852541 </v>
    <v>       0.28443799       0.35306162       0.45202062 </v>
    <v>       0.79326502       0.53703787       0.53892527 </v>
    <v>       0.55589708       0.58769132       0.61440612 </v>
    <v>       0.42412006       0.54328620       0.27986105 </v>
    <v>       0.50894741       0.65984570       0.70400156 </v>
    <v>       0.26265982       0.50568523       0.60265428 </v>
    <v>       0.21072272       0.41813760       0.53105039 </v>
    <v>       0.60090654       0.58197914       0.45254259 </v>
    <v>       0.38544357       0.65296704       0.72941133 </v>
    <v>       0.47424490       0.54794204       0.44140236 </v>
    <v>       0.40180479       0.45306079       0.52108436 </v>
    <v>       0.53520702       0.41608490       0.59173240 </v>
    <v>       0.46544808       0.54254992       0.59041194 </v>
    <v>       0.60138410       0.50650621       0.52397638 </v>
    <v>       0.53073984       0.40562607       0.44215451 </v>
    <v>       0.50088568       0.48087016       0.51934246 </v>
   </varray>
  </structure>
  <varray name="forces" >
   <v>      -0.10345256       0.47857831      -0.27449636 </v>
   <v>      -0.00183477       0.13397070       0.02566099 </v>
   <v>       0.00907064       0.14174153       0.09083080 </v>
   <v>       0.01757139       0.02962220       0.01653884 </v>
   <v>       0.24540345      -0.67936452       0.71793010 </v>
   <v>      -0.01162315      -0.05811339      -0.04929968 </v>
   <v>       0.02135600      -0.00523364       0.01289139 </v>
   <v>      -0.04174549       0.03112740      -0.05066675 </v>
   <v>      -0.00716680       0.02532854      -0.01660280 </v>
   <v>      -0.00288083       0.01921313      -0.01715125 </v>
   <v>      -0.01290868      -0.00094216      -0.00441345 </v>
   <v>      -0.00368537       0.02478956      -0.02138715 </v>
   <v>      -0.00184009      -0.03901030       0.04540523 </v>
   <v>      -0.01872572       0.01012326      -0.00827079 </v>
   <v>      -0.00030617       0.00433569      -0.00146469 </v>
   <v>      -0.03164954      -0.00243198      -0.00579395 </v>
   <v>      -0.00878038      -0.04984675      -0.01996183 </v>
   <v>       0.02190117       0.00343775       0.00116982 </v>
   <v>      -0.00836399       0.03457646       0.02383909 </v>
   <v>       0.02115705       0.01706814      -0.01580367 </v>
   <v>       0.00735265       0.00389763       0.02661962 </v>
   <v>      -0.01463353      -0.01448010      -0.01345511 </v>
   <v>       0.04737592       0.02471009       0.00449750 </v>
   <v>      -0.04436797      -0.00144928      -0.00079128 </v>
   <v>       0.01819430      -0.02535771      -0.02495254 </v>
   <v>      -0.00392607      -0.00153571      -0.00051203 </v>
   <v>       0.00184860      -0.00401267       0.00442362 </v>
   <v>      -0.00232680       0.00100491      -0.00005525 </v>
   <v>       0.00529306      -0.03847855      -0.00935624 </v>
   <v>      -0.00170446       0.00402618       0.00410429 </v>
   <v>      -0.00149043      -0.01430611       0.00785547 </v>
   <v>       0.01561410       0.04626331       0.05860042 </v>
   <v>       0.05034275      -0.03521368       0.14190904 </v>
   <v>      -0.33586178      -0.42795328      -1.04668992 </v>
   <v>       0.03922276      -0.04321251       0.00918117 </v>
   <v>       0.00579696       0.00184598      -0.00052228 </v>
   <v>       0.01008530       0.00133511      -0.00311096 </v>
   <v>       0.03023234       0.02189000       0.09966517 </v>
   <v>       0.00334599      -0.02553934       0.00469422 </v>
   <v>      -0.00276355      -0.01010406       0.00150979 </v>
   <v>       0.00012124       0.00437981      -0.00093095 </v>
   <v>       0.02575724      -0.01196527       0.01755068 </v>
   <v>      -0.01286703       0.00745644      -0.01479320 </v>
   <v>       0.00360362       0.00267393       0.00406715 </v>
   <v>      -0.00622911      -0.00525476       0.00079493 </v>
   <v>      -0.00621366      -0.00475514       0.00112523 </v>
   <v>       0.04550840       0.00292656      -0.01698455 </v>
   <v>      -0.00236645       0.00493690       0.00896615 </v>
   <v>       0.06852861       0.22271854       0.37814181 </v>
   <v>      -0.19141350      -0.07690711       0.01945195 </v>
   <v>      -0.01121004      -0.04332112       0.03323500 </v>
   <v>      -0.03214823       0.10300960       0.05120114 </v>
   <v>       0.10685783      -0.01558195       0.04248492 </v>
   <v>      -0.01744788       0.07364737       0.00882409 </v>
   <v>       0.12039268       0.15373606      -0.24570295 </v>
  </varray>
  <varray name="stress" >
   <v>      -2.53186828       0.07853064      -0.19444397 </v>
   <v>       0.07853065      -2.96840402       0.03856663 </v>
   <v>      -0.19444398       0.03856663      -3.13675373 </v>
  </varray>
  <energy>
   <i name="e_fr_energy">   -377.08855964 </i>
   <i name="e_wo_entrp">   -377.08855964 </i>
   <i name="e_0_energy">     -0.00000000 </i>
  </energy>
  <time name="totalsc"> 1022.87 1061.18</time>
  <eigenvalues>
   <array>
    <dimension dim="1">band</dimension>
    <dimension dim="2">kpoint</dimension>
    <dimension dim="3">spin</dimension>
    <field>eigene</field>
    <field>occ</field>
    <set>
     <set comment="spin 1">
      <set comment="kpoint 1">
       <r>  -49.0586    1.0000 </r>
       <r>  -48.9468    1.0000 </r>
       <r>  -48.7007    1.0000 </r>
       <r>  -29.1797    1.0000 </r>
       <r>  -27.7509    1.0000 </r>
       <r>  -26.9393    1.0000 </r>
       <r>  -26.7901    1.0000 </r>
       <r>  -26.1955    1.0000 </r>
       <r>  -26.1295    1.0000 </r>
       <r>  -23.2757    1.0000 </r>
       <r>  -22.7472    1.0000 </r>
       <r>  -22.4842    1.0000 </r>
       <r>  -22.4124    1.0000 </r>
       <r>  -22.3592    1.0000 </r>
       <r>  -22.3028    1.0000 </r>
       <r>  -22.2313    1.0000 </r>
       <r>  -22.1899    1.0000 </r>
       <r>  -20.8342    1.0000 </r>
       <r>  -20.7900    1.0000 </r>
       <r>  -19.2107    1.0000 </r>
       <r>  -19.0228    1.0000 </r>
       <r>  -18.7683    1.0000 </r>
       <r>  -18.7071    1.0000 </r>
       <r>  -18.4848    1.0000 </r>
       <r>  -18.4419    1.0000 </r>
       <r>  -17.6490    1.0000 </r>
       <r>  -17.6060    1.0000 </r>
       <r>  -17.3404    1.0000 </r>
       <r>  -17.2915    1.0000 </r>
       <r>  -16.8914    1.0000 </r>
       <r>  -16.6370    1.0000 </r>
       <r>  -15.9522    1.0000 </r>
       <r>  -15.7572    1.0000 </r>
       <r>  -15.4576    1.0000 </r>
       <r>  -14.8049    1.0000 </r>
       <r>  -14.7593    1.0000 </r>
       <r>  -14.7417    1.0000 </r>
       <r>  -14.6876    1.0000 </r>
       <r>  -14.5598    1.0000 </r>
       <r>  -14.1870    1.0000 </r>
       <r>  -14.0558    1.0000 </r>
       <r>  -13.9918    1.0000 </r>
       <r>  -13.8426    1.0000 </r>
       <r>  -13.8058    1.0000 </r>
       <r>  -13.7820    1.0000 </r>
       <r>  -13.7579    1.0000 </r>
       <r>  -13.4657    1.0000 </r>
       <r>  -13.3928    1.0000 </r>
       <r>  -13.2138    1.0000 </r>
       <r>  -13.1576    1.0000 </r>
       <r>  -13.0164    1.0000 </r>
       <r>  -12.9040    1.0000 </r>
       <r>  -12.8102    1.0000 </r>
       <r>  -12.7810    1.0000 </r>
       <r>  -12.5950    1.0000 </r>
       <r>  -12.4093    1.0000 </r>
       <r>  -12.3849    1.0000 </r>
       <r>  -12.2008    1.0000 </r>
       <r>  -12.1461    1.0000 </r>
       <r>  -11.8905    1.0000 </r>
       <r>  -11.4726    1.0000 </r>
       <r>  -11.3360    1.0000 </r>
       <r>  -11.2679    1.0000 </r>
       <r>  -11.1230    1.0000 </r>
       <r>  -11.1117    1.0000 </r>
       <r>  -11.0836    1.0000 </r>
       <r>  -10.7229    1.0000 </r>
       <r>  -10.5489    1.0000 </r>
       <r>  -10.4683    1.0000 </r>
       <r>  -10.2295    1.0000 </r>
       <r>  -10.1845    1.0000 </r>
       <r>   -9.9685    1.0000 </r>
       <r>   -9.8601    1.0000 </r>
       <r>   -9.8317    1.0000 </r>
       <r>   -9.7832    1.0000 </r>
       <r>   -9.7341    1.0000 </r>
       <r>   -9.6919    1.0000 </r>
       <r>   -9.5334    1.0000 </r>
       <r>   -8.4320    1.0000 </r>
       <r>   -8.3748    1.0000 </r>
       <r>   -7.4300    1.0000 </r>
       <r>   -7.2439    1.0000 </r>
       <r>   -7.1235    1.0000 </r>
       <r>   -5.4262    0.0000 </r>
       <r>   -5.0278    0.0000 </r>
       <r>   -4.9649    0.0000 </r>
       <r>   -4.7265    0.0000 </r>
       <r>   -4.2960    0.0000 </r>
       <r>   -4.0971    0.0000 </r>
       <r>   -4.0160    0.0000 </r>
       <r>   -3.9588    0.0000 </r>
       <r>   -3.8135    0.0000 </r>
       <r>   -3.1986    0.0000 </r>
       <r>   -2.8619    0.0000 </r>
       <r>   -2.8092    0.0000 </r>
       <r>   -2.6971    0.0000 </r>
       <r>   -2.0489    0.0000 </r>
       <r>   -1.6480    0.0000 </r>
       <r>   -1.5804    0.0000 </r>
       <r>   -1.4166    0.0000 </r>
       <r>   -1.1911    0.0000 </r>
       <r>   -1.1696    0.0000 </r>
       <r>   -1.0088    0.0000 </r>
       <r>   -0.9605    0.0000 </r>
       <r>   -0.9164    0.0000 </r>
       <r>   -0.8647    0.0000 </r>
       <r>   -0.7542    0.0000 </r>
       <r>   -0.6780    0.0000 </r>
       <r>   -0.5868    0.0000 </r>
       <r>   -0.4675    0.0000 </r>
       <r>   -0.4121    0.0000 </r>
       <r>   -0.4035    0.0000 </r>
       <r>   -0.3178    0.0000 </r>
       <r>   -0.1805    0.0000 </r>
       <r>   -0.1735    0.0000 </r>
       <r>   -0.0918    0.0000 </r>
       <r>   -0.0112    0.0000 </r>
       <r>    0.0927    0.0000 </r>
       <r>    0.2265    0.0000 </r>
       <r>    0.3322    0.0000 </r>
       <r>    0.3845    0.0000 </r>
       <r>    0.4580    0.0000 </r>
       <r>    0.4771    0.0000 </r>
       <r>    0.5541    0.0000 </r>
       <r>    0.5917    0.0000 </r>
       <r>    0.6434    0.0000 </r>
       <r>    0.6733    0.0000 </r>
       <r>    0.6960    0.0000 </r>
      </set>
     </set>
     <set comment="spin 2">
      <set comment="kpoint 1">
       <r>  -49.0586    1.0000 </r>
       <r>  -48.9468    1.0000 </r>
       <r>  -48.7007    1.0000 </r>
       <r>  -29.1797    1.0000 </r>
       <r>  -27.7509    1.0000 </r>
       <r>  -26.9393    1.0000 </r>
       <r>  -26.7901    1.0000 </r>
       <r>  -26.1955    1.0000 </r>
       <r>  -26.1295    1.0000 </r>
       <r>  -23.2757    1.0000 </r>
       <r>  -22.7472    1.0000 </r>
       <r>  -22.4842    1.0000 </r>
       <r>  -22.4124    1.0000 </r>
       <r>  -22.3592    1.0000 </r>
       <r>  -22.3028    1.0000 </r>
       <r>  -22.2313    1.0000 </r>
       <r>  -22.1899    1.0000 </r>
       <r>  -20.8342    1.0000 </r>
       <r>  -20.7900    1.0000 </r>
       <r>  -19.2107    1.0000 </r>
       <r>  -19.0228    1.0000 </r>
       <r>  -18.7683    1.0000 </r>
       <r>  -18.7071    1.0000 </r>
       <r>  -18.4848    1.0000 </r>
       <r>  -18.4419    1.0000 </r>
       <r>  -17.6490    1.0000 </r>
       <r>  -17.6060    1.0000 </r>
       <r>  -17.3404    1.0000 </r>
       <r>  -17.2915    1.0000 </r>
       <r>  -16.8914    1.0000 </r>
       <r>  -16.6370    1.0000 </r>
       <r>  -15.9522    1.0000 </r>
       <r>  -15.7572    1.0000 </r>
       <r>  -15.4576    1.0000 </r>
       <r>  -14.8049    1.0000 </r>
       <r>  -14.7593    1.0000 </r>
       <r>  -14.7417    1.0000 </r>
       <r>  -14.6876    1.0000 </r>
       <r>  -14.5598    1.0000 </r>
       <r>  -14.1870    1.0000 </r>
       <r>  -14.0558    1.0000 </r>
       <r>  -13.9918    1.0000 </r>
       <r>  -13.8426    1.0000 </r>
       <r>  -13.8058    1.0000 </r>
       <r>  -13.7820    1.0000 </r>
       <r>  -13.7579    1.0000 </r>
       <r>  -13.4657    1.0000 </r>
       <r>  -13.3928    1.0000 </r>
       <r>  -13.2138    1.0000 </r>
       <r>  -13.1576    1.0000 </r>
       <r>  -13.0164    1.0000 </r>
       <r>  -12.9040    1.0000 </r>
       <r>  -12.8102    1.0000 </r>
       <r>  -12.7810    1.0000 </r>
       <r>  -12.5950    1.0000 </r>
       <r>  -12.4093    1.0000 </r>
       <r>  -12.3849    1.0000 </r>
       <r>  -12.2008    1.0000 </r>
       <r>  -12.1461    1.0000 </r>
       <r>  -11.8905    1.0000 </r>
       <r>  -11.4726    1.0000 </r>
       <r>  -11.3360    1.0000 </r>
       <r>  -11.2679    1.0000 </r>
       <r>  -11.1230    1.0000 </r>
       <r>  -11.1117    1.0000 </r>
       <r>  -11.0836    1.0000 </r>
       <r>  -10.7229    1.0000 </r>
       <r>  -10.5489    1.0000 </r>
       <r>  -10.4683    1.0000 </r>
       <r>  -10.2295    1.0000 </r>
       <r>  -10.1845    1.0000 </r>
       <r>   -9.9685    1.0000 </r>
       <r>   -9.8601    1.0000 </r>
       <r>   -9.8317    1.0000 </r>
       <r>   -9.7832    1.0000 </r>
       <r>   -9.7341    1.0000 </r>
       <r>   -9.6919    1.0000 </r>
       <r>   -9.5334    1.0000 </r>
       <r>   -8.4320    1.0000 </r>
       <r>   -8.3748    1.0000 </r>
       <r>   -7.4300    1.0000 </r>
       <r>   -7.2439    1.0000 </r>
       <r>   -7.1235    1.0000 </r>
       <r>   -5.4262    0.0000 </r>
       <r>   -5.0278    0.0000 </r>
       <r>   -4.9649    0.0000 </r>
       <r>   -4.7265    0.0000 </r>
       <r>   -4.2960    0.0000 </r>
       <r>   -4.0971    0.0000 </r>
       <r>   -4.0160    0.0000 </r>
       <r>   -3.9588    0.0000 </r>
       <r>   -3.8135    0.0000 </r>
       <r>   -3.1986    0.0000 </r>
       <r>   -2.8619    0.0000 </r>
       <r>   -2.8092    0.0000 </r>
       <r>   -2.6971    0.0000 </r>
       <r>   -2.0489    0.0000 </r>
       <r>   -1.6480    0.0000 </r>
       <r>   -1.5804    0.0000 </r>
       <r>   -1.4166    0.0000 </r>
       <r>   -1.1911    0.0000 </r>
       <r>   -1.1696    0.0000 </r>
       <r>   -1.0088    0.0000 </r>
       <r>   -0.9605    0.0000 </r>
       <r>   -0.9164    0.0000 </r>
       <r>   -0.8647    0.0000 </r>
       <r>   -0.7542    0.0000 </r>
       <r>   -0.6780    0.0000 </r>
       <r>   -0.5868    0.0000 </r>
       <r>   -0.4675    0.0000 </r>
       <r>   -0.4121    0.0000 </r>
       <r>   -0.4035    0.0000 </r>
       <r>   -0.3178    0.0000 </r>
       <r>   -0.1805    0.0000 </r>
       <r>   -0.1735    0.0000 </r>
       <r>   -0.0918    0.0000 </r>
       <r>   -0.0112    0.0000 </r>
       <r>    0.0927    0.0000 </r>
       <r>    0.2265    0.0000 </r>
       <r>    0.3322    0.0000 </r>
       <r>    0.3846    0.0000 </r>
       <r>    0.4581    0.0000 </r>
       <r>    0.4771    0.0000 </r>
       <r>    0.5541    0.0000 </r>
       <r>    0.5917    0.0000 </r>
       <r>    0.6434    0.0000 </r>
       <r>    0.6734    0.0000 </r>
       <r>    0.6966    0.0000 </r>
      </set>
     </set>
    </set>
   </array>
  </eigenvalues>
  <separator name="orbital magnetization" >
   <v name="MAGDIPOLOUT">      0.00000000      0.00000000      0.00000000</v>
  </separator>
  <dos>
   <i name="efermi">     -6.98642162 </i>
   <total>
    <array>
     <dimension dim="1">gridpoints</dimension>
     <dimension dim="2">spin</dimension>
     <field>energy</field>
     <field>total</field>
     <field>integrated</field>
     <set>
      <set comment="spin 1">
       <r>   -51.5463     0.0000     0.0000 </r>
       <r>   -51.3639     0.0000     0.0000 </r>
       <r>   -51.1814     0.0000     0.0000 </r>
       <r>   -50.9990     0.0000     0.0000 </r>
       <r>   -50.8166     0.0000     0.0000 </r>
       <r>   -50.6341     0.0000     0.0000 </r>
       <r>   -50.4517     0.0000     0.0000 </r>
       <r>   -50.2693     0.0000     0.0000 </r>
       <r>   -50.0868     0.0000     0.0000 </r>
       <r>   -49.9044     0.0000     0.0000 </r>
       <r>   -49.7220     0.0000     0.0000 </r>
       <r>   -49.5395     0.0000     0.0000 </r>
       <r>   -49.3571     0.0000     0.0000 </r>
       <r>   -49.1746     0.0000     0.0000 </r>
       <r>   -48.9922    10.9628     2.0000 </r>
       <r>   -48.8098     0.0000     4.0000 </r>
       <r>   -48.6273    10.9628     6.0000 </r>
       <r>   -48.4449     0.0000     6.0000 </r>
       <r>   -48.2625     0.0000     6.0000 </r>
       <r>   -48.0800     0.0000     6.0000 </r>
       <r>   -47.8976     0.0000     6.0000 </r>
       <r>   -47.7152     0.0000     6.0000 </r>
       <r>   -47.5327     0.0000     6.0000 </r>
       <r>   -47.3503     0.0000     6.0000 </r>
       <r>   -47.1679     0.0000     6.0000 </r>
       <r>   -46.9854     0.0000     6.0000 </r>
       <r>   -46.8030     0.0000     6.0000 </r>
       <r>   -46.6206     0.0000     6.0000 </r>
       <r>   -46.4381     0.0000     6.0000 </r>
       <r>   -46.2557     0.0000     6.0000 </r>
       <r>   -46.0732     0.0000     6.0000 </r>
       <r>   -45.8908     0.0000     6.0000 </r>
       <r>   -45.7084     0.0000     6.0000 </r>
       <r>   -45.5259     0.0000     6.0000 </r>
       <r>   -45.3435     0.0000     6.0000 </r>
       <r>   -45.1611     0.0000     6.0000 </r>
       <r>   -44.9786     0.0000     6.0000 </r>
       <r>   -44.7962     0.0000     6.0000 </r>
       <r>   -44.6138     0.0000     6.0000 </r>
       <r>   -44.4313     0.0000     6.0000 </r>
       <r>   -44.2489     0.0000     6.0000 </r>
       <r>   -44.0665     0.0000     6.0000 </r>
       <r>   -43.8840     0.0000     6.0000 </r>
       <r>   -43.7016     0.0000     6.0000 </r>
       <r>   -43.5191     0.0000     6.0000 </r>
       <r>   -43.3367     0.0000     6.0000 </r>
       <r>   -43.1543     0.0000     6.0000 </r>
       <r>   -42.9718     0.0000     6.0000 </r>
       <r>   -42.7894     0.0000     6.0000 </r>
       <r>   -42.6070     0.0000     6.0000 </r>
       <r>   -42.4245     0.0000     6.0000 </r>
       <r>   -42.2421     0.0000     6.0000 </r>
       <r>   -42.0597     0.0000     6.0000 </r>
       <r>   -41.8772     0.0000     6.0000 </r>
       <r>   -41.6948     0.0000     6.0000 </r>
       <r>   -41.5124     0.0000     6.0000 </r>
       <r>   -41.3299     0.0000     6.0000 </r>
       <r>   -41.1475     0.0000     6.0000 </r>
       <r>   -40.9650     0.0000     6.0000 </r>
       <r>   -40.7826     0.0000     6.0000 </r>
       <r>   -40.6002     0.0000     6.0000 </r>
       <r>   -40.4177     0.0000     6.0000 </r>
       <r>   -40.2353     0.0000     6.0000 </r>
       <r>   -40.0529     0.0000     6.0000 </r>
       <r>   -39.8704     0.0000     6.0000 </r>
       <r>   -39.6880     0.0000     6.0000 </r>
       <r>   -39.5056     0.0000     6.0000 </r>
       <r>   -39.3231     0.0000     6.0000 </r>
       <r>   -39.1407     0.0000     6.0000 </r>
       <r>   -38.9583     0.0000     6.0000 </r>
       <r>   -38.7758     0.0000     6.0000 </r>
       <r>   -38.5934     0.0000     6.0000 </r>
       <r>   -38.4109     0.0000     6.0000 </r>
       <r>   -38.2285     0.0000     6.0000 </r>
       <r>   -38.0461     0.0000     6.0000 </r>
       <r>   -37.8636     0.0000     6.0000 </r>
       <r>   -37.6812     0.0000     6.0000 </r>
       <r>   -37.4988     0.0000     6.0000 </r>
       <r>   -37.3163     0.0000     6.0000 </r>
       <r>   -37.1339     0.0000     6.0000 </r>
       <r>   -36.9515     0.0000     6.0000 </r>
       <r>   -36.7690     0.0000     6.0000 </r>
       <r>   -36.5866     0.0000     6.0000 </r>
       <r>   -36.4042     0.0000     6.0000 </r>
       <r>   -36.2217     0.0000     6.0000 </r>
       <r>   -36.0393     0.0000     6.0000 </r>
       <r>   -35.8569     0.0000     6.0000 </r>
       <r>   -35.6744     0.0000     6.0000 </r>
       <r>   -35.4920     0.0000     6.0000 </r>
       <r>   -35.3095     0.0000     6.0000 </r>
       <r>   -35.1271     0.0000     6.0000 </r>
       <r>   -34.9447     0.0000     6.0000 </r>
       <r>   -34.7622     0.0000     6.0000 </r>
       <r>   -34.5798     0.0000     6.0000 </r>
       <r>   -34.3974     0.0000     6.0000 </r>
       <r>   -34.2149     0.0000     6.0000 </r>
       <r>   -34.0325     0.0000     6.0000 </r>
       <r>   -33.8501     0.0000     6.0000 </r>
       <r>   -33.6676     0.0000     6.0000 </r>
       <r>   -33.4852     0.0000     6.0000 </r>
       <r>   -33.3028     0.0000     6.0000 </r>
       <r>   -33.1203     0.0000     6.0000 </r>
       <r>   -32.9379     0.0000     6.0000 </r>
       <r>   -32.7554     0.0000     6.0000 </r>
       <r>   -32.5730     0.0000     6.0000 </r>
       <r>   -32.3906     0.0000     6.0000 </r>
       <r>   -32.2081     0.0000     6.0000 </r>
       <r>   -32.0257     0.0000     6.0000 </r>
       <r>   -31.8433     0.0000     6.0000 </r>
       <r>   -31.6608     0.0000     6.0000 </r>
       <r>   -31.4784     0.0000     6.0000 </r>
       <r>   -31.2960     0.0000     6.0000 </r>
       <r>   -31.1135     0.0000     6.0000 </r>
       <r>   -30.9311     0.0000     6.0000 </r>
       <r>   -30.7487     0.0000     6.0000 </r>
       <r>   -30.5662     0.0000     6.0000 </r>
       <r>   -30.3838     0.0000     6.0000 </r>
       <r>   -30.2013     0.0000     6.0000 </r>
       <r>   -30.0189     0.0000     6.0000 </r>
       <r>   -29.8365     0.0000     6.0000 </r>
       <r>   -29.6540     0.0000     6.0000 </r>
       <r>   -29.4716     0.0000     6.0000 </r>
       <r>   -29.2892     0.0000     6.0000 </r>
       <r>   -29.1067    10.9628     8.0000 </r>
       <r>   -28.9243     0.0000     8.0000 </r>
       <r>   -28.7419     0.0000     8.0000 </r>
       <r>   -28.5594     0.0000     8.0000 </r>
       <r>   -28.3770     0.0000     8.0000 </r>
       <r>   -28.1946     0.0000     8.0000 </r>
       <r>   -28.0121     0.0000     8.0000 </r>
       <r>   -27.8297     0.0000     8.0000 </r>
       <r>   -27.6473     0.0000    10.0000 </r>
       <r>   -27.4648     0.0000    10.0000 </r>
       <r>   -27.2824     0.0000    10.0000 </r>
       <r>   -27.0999     0.0000    10.0000 </r>
       <r>   -26.9175    10.9517    11.9980 </r>
       <r>   -26.7351    10.9628    14.0000 </r>
       <r>   -26.5526     0.0000    14.0000 </r>
       <r>   -26.3702     0.0000    14.0000 </r>
       <r>   -26.1878     9.4477    15.7236 </r>
       <r>   -26.0053     0.0000    18.0000 </r>
       <r>   -25.8229     0.0000    18.0000 </r>
       <r>   -25.6405     0.0000    18.0000 </r>
       <r>   -25.4580     0.0000    18.0000 </r>
       <r>   -25.2756     0.0000    18.0000 </r>
       <r>   -25.0932     0.0000    18.0000 </r>
       <r>   -24.9107     0.0000    18.0000 </r>
       <r>   -24.7283     0.0000    18.0000 </r>
       <r>   -24.5458     0.0000    18.0000 </r>
       <r>   -24.3634     0.0000    18.0000 </r>
       <r>   -24.1810     0.0000    18.0000 </r>
       <r>   -23.9985     0.0000    18.0000 </r>
       <r>   -23.8161     0.0000    18.0000 </r>
       <r>   -23.6337     0.0000    18.0000 </r>
       <r>   -23.4512     0.0000    18.0000 </r>
       <r>   -23.2688     9.1716    19.6732 </r>
       <r>   -23.0864     0.0000    20.0000 </r>
       <r>   -22.9039     0.0000    20.0000 </r>
       <r>   -22.7215    10.9613    21.9997 </r>
       <r>   -22.5391     0.0000    22.0000 </r>
       <r>   -22.3566    18.0166    27.2869 </r>
       <r>   -22.1742    21.7796    33.9734 </r>
       <r>   -21.9917     0.0000    34.0000 </r>
       <r>   -21.8093     0.0000    34.0000 </r>
       <r>   -21.6269     0.0000    34.0000 </r>
       <r>   -21.4444     0.0000    34.0000 </r>
       <r>   -21.2620     0.0000    34.0000 </r>
       <r>   -21.0796     0.0000    34.0000 </r>
       <r>   -20.8971     0.0000    34.0000 </r>
       <r>   -20.7147    10.9628    38.0000 </r>
       <r>   -20.5323     0.0000    38.0000 </r>
       <r>   -20.3498     0.0000    38.0000 </r>
       <r>   -20.1674     0.0000    38.0000 </r>
       <r>   -19.9850     0.0000    38.0000 </r>
       <r>   -19.8025     0.0000    38.0000 </r>
       <r>   -19.6201     0.0000    38.0000 </r>
       <r>   -19.4376     0.0000    38.0000 </r>
       <r>   -19.2552     0.0000    38.0000 </r>
       <r>   -19.0728     0.0000    40.0000 </r>
       <r>   -18.8903     0.0000    42.0000 </r>
       <r>   -18.7079    15.9735    44.9141 </r>
       <r>   -18.5255     0.0000    46.0000 </r>
       <r>   -18.3430     0.0000    50.0000 </r>
       <r>   -18.1606     0.0000    50.0000 </r>
       <r>   -17.9782     0.0000    50.0000 </r>
       <r>   -17.7957     0.0000    50.0000 </r>
       <r>   -17.6133    12.6058    52.2997 </r>
       <r>   -17.4309     0.0000    54.0000 </r>
       <r>   -17.2484    10.9628    58.0000 </r>
       <r>   -17.0660     0.0000    58.0000 </r>
       <r>   -16.8836     9.4910    59.7315 </r>
       <r>   -16.7011     0.0000    60.0000 </r>
       <r>   -16.5187     0.0000    62.0000 </r>
       <r>   -16.3362     0.0000    62.0000 </r>
       <r>   -16.1538     0.0000    62.0000 </r>
       <r>   -15.9714     0.0369    62.0067 </r>
       <r>   -15.7889     0.0000    64.0000 </r>
       <r>   -15.6065     0.0000    66.0000 </r>
       <r>   -15.4241    10.9628    68.0000 </r>
       <r>   -15.2416     0.0000    68.0000 </r>
       <r>   -15.0592     0.0000    68.0000 </r>
       <r>   -14.8768     0.0000    68.0000 </r>
       <r>   -14.6943    23.8118    74.3441 </r>
       <r>   -14.5119    10.9628    78.0000 </r>
       <r>   -14.3295     0.0000    78.0000 </r>
       <r>   -14.1470    10.9628    80.0000 </r>
       <r>   -13.9646    10.9621    83.9999 </r>
       <r>   -13.7821    27.3267    88.9854 </r>
       <r>   -13.5997     0.0000    92.0000 </r>
       <r>   -13.4173    10.9657    94.0005 </r>
       <r>   -13.2348     0.0162    96.0030 </r>
       <r>   -13.0524     0.0000   100.0000 </r>
       <r>   -12.8700    10.9628   104.0000 </r>
       <r>   -12.6875     0.0000   108.0000 </r>
       <r>   -12.5051     0.0000   110.0000 </r>
       <r>   -12.3227    10.9628   114.0000 </r>
       <r>   -12.1402    19.6785   117.5901 </r>
       <r>   -11.9578     0.0000   118.0000 </r>
       <r>   -11.7754     0.0000   120.0000 </r>
       <r>   -11.5929     0.0000   120.0000 </r>
       <r>   -11.4105    10.9628   122.0000 </r>
       <r>   -11.2280    10.9628   126.0000 </r>
       <r>   -11.0456    32.8883   132.0000 </r>
       <r>   -10.8632     0.0000   132.0000 </r>
       <r>   -10.6807    10.9628   134.0000 </r>
       <r>   -10.4983    10.9629   136.0000 </r>
       <r>   -10.3159     0.0000   138.0000 </r>
       <r>   -10.1334    10.9628   142.0000 </r>
       <r>    -9.9510    10.8894   143.9866 </r>
       <r>    -9.7686    21.7136   149.9613 </r>
       <r>    -9.5861     0.0000   154.0000 </r>
       <r>    -9.4037     0.0000   156.0000 </r>
       <r>    -9.2213     0.0000   156.0000 </r>
       <r>    -9.0388     0.0000   156.0000 </r>
       <r>    -8.8564     0.0000   156.0000 </r>
       <r>    -8.6740     0.0000   156.0000 </r>
       <r>    -8.4915     0.0000   156.0000 </r>
       <r>    -8.3091    10.9628   160.0000 </r>
       <r>    -8.1266     0.0000   160.0000 </r>
       <r>    -7.9442     0.0000   160.0000 </r>
       <r>    -7.7618     0.0000   160.0000 </r>
       <r>    -7.5793     0.0000   160.0000 </r>
       <r>    -7.3969    10.9628   162.0000 </r>
       <r>    -7.2145    10.9626   164.0000 </r>
       <r>    -7.0320     0.0000   166.0000 </r>
       <r>    -6.8496     0.0000   166.0000 </r>
       <r>    -6.6672     0.0000   166.0000 </r>
       <r>    -6.4847     0.0000   166.0000 </r>
       <r>    -6.3023     0.0000   166.0000 </r>
       <r>    -6.1199     0.0000   166.0000 </r>
       <r>    -5.9374     0.0000   166.0000 </r>
       <r>    -5.7550     0.0000   166.0000 </r>
       <r>    -5.5725     0.0000   166.0000 </r>
       <r>    -5.3901    10.9628   168.0000 </r>
       <r>    -5.2077     0.0000   168.0000 </r>
       <r>    -5.0252     7.0525   169.2866 </r>
       <r>    -4.8428     0.0000   172.0000 </r>
       <r>    -4.6604    10.9628   174.0000 </r>
       <r>    -4.4779     0.0000   174.0000 </r>
       <r>    -4.2955     5.7826   175.0549 </r>
       <r>    -4.1131     0.1330   176.0243 </r>
       <r>    -3.9306    10.9624   181.9999 </r>
       <r>    -3.7482    10.9628   184.0000 </r>
       <r>    -3.5658     0.0000   184.0000 </r>
       <r>    -3.3833     0.0000   184.0000 </r>
       <r>    -3.2009     4.1148   184.7507 </r>
       <r>    -3.0184     0.0000   186.0000 </r>
       <r>    -2.8360    10.9622   187.9999 </r>
       <r>    -2.6536    10.9628   192.0000 </r>
       <r>    -2.4711     0.0000   192.0000 </r>
       <r>    -2.2887     0.0000   192.0000 </r>
       <r>    -2.1063     0.0000   192.0000 </r>
       <r>    -1.9238     0.0000   194.0000 </r>
       <r>    -1.7414     0.0000   194.0000 </r>
       <r>    -1.5590    10.9495   197.9976 </r>
       <r>    -1.3765    10.9628   200.0000 </r>
       <r>    -1.1941     3.6777   200.6710 </r>
       <r>    -1.0117     3.7616   204.6862 </r>
       <r>    -0.8292    10.9628   212.0000 </r>
       <r>    -0.6468    10.9627   216.0000 </r>
       <r>    -0.4643     7.3648   219.3436 </r>
       <r>    -0.2819    10.9628   226.0000 </r>
       <r>    -0.0995    12.4784   230.2765 </r>
       <r>     0.0830     0.9227   234.1683 </r>
       <r>     0.2654    10.9628   238.0000 </r>
       <r>     0.4478    11.7767   242.1485 </r>
       <r>     0.6303    22.2765   250.0640 </r>
       <r>     0.8127     0.0000   256.0000 </r>
       <r>     0.9951     0.0000   256.0000 </r>
       <r>     1.1776     0.0000   256.0000 </r>
       <r>     1.3600     0.0000   256.0000 </r>
       <r>     1.5424     0.0000   256.0000 </r>
       <r>     1.7249     0.0000   256.0000 </r>
       <r>     1.9073     0.0000   256.0000 </r>
       <r>     2.0897     0.0000   256.0000 </r>
       <r>     2.2722     0.0000   256.0000 </r>
       <r>     2.4546     0.0000   256.0000 </r>
       <r>     2.6371     0.0000   256.0000 </r>
       <r>     2.8195     0.0000   256.0000 </r>
       <r>     3.0019     0.0000   256.0000 </r>
       <r>     3.1844     0.0000   256.0000 </r>
      </set>
      <set comment="spin 2">
       <r>   -51.5463     0.0000     0.0000 </r>
       <r>   -51.3639     0.0000     0.0000 </r>
       <r>   -51.1814     0.0000     0.0000 </r>
       <r>   -50.9990     0.0000     0.0000 </r>
       <r>   -50.8166     0.0000     0.0000 </r>
       <r>   -50.6341     0.0000     0.0000 </r>
       <r>   -50.4517     0.0000     0.0000 </r>
       <r>   -50.2693     0.0000     0.0000 </r>
       <r>   -50.0868     0.0000     0.0000 </r>
       <r>   -49.9044     0.0000     0.0000 </r>
       <r>   -49.7220     0.0000     0.0000 </r>
       <r>   -49.5395     0.0000     0.0000 </r>
       <r>   -49.3571     0.0000     0.0000 </r>
       <r>   -49.1746     0.0000     0.0000 </r>
       <r>   -48.9922    10.9628     2.0000 </r>
       <r>   -48.8098     0.0000     4.0000 </r>
       <r>   -48.6273    10.9628     6.0000 </r>
       <r>   -48.4449     0.0000     6.0000 </r>
       <r>   -48.2625     0.0000     6.0000 </r>
       <r>   -48.0800     0.0000     6.0000 </r>
       <r>   -47.8976     0.0000     6.0000 </r>
       <r>   -47.7152     0.0000     6.0000 </r>
       <r>   -47.5327     0.0000     6.0000 </r>
       <r>   -47.3503     0.0000     6.0000 </r>
       <r>   -47.1679     0.0000     6.0000 </r>
       <r>   -46.9854     0.0000     6.0000 </r>
       <r>   -46.8030     0.0000     6.0000 </r>
       <r>   -46.6206     0.0000     6.0000 </r>
       <r>   -46.4381     0.0000     6.0000 </r>
       <r>   -46.2557     0.0000     6.0000 </r>
       <r>   -46.0732     0.0000     6.0000 </r>
       <r>   -45.8908     0.0000     6.0000 </r>
       <r>   -45.7084     0.0000     6.0000 </r>
       <r>   -45.5259     0.0000     6.0000 </r>
       <r>   -45.3435     0.0000     6.0000 </r>
       <r>   -45.1611     0.0000     6.0000 </r>
       <r>   -44.9786     0.0000     6.0000 </r>
       <r>   -44.7962     0.0000     6.0000 </r>
       <r>   -44.6138     0.0000     6.0000 </r>
       <r>   -44.4313     0.0000     6.0000 </r>
       <r>   -44.2489     0.0000     6.0000 </r>
       <r>   -44.0665     0.0000     6.0000 </r>
       <r>   -43.8840     0.0000     6.0000 </r>
       <r>   -43.7016     0.0000     6.0000 </r>
       <r>   -43.5191     0.0000     6.0000 </r>
       <r>   -43.3367     0.0000     6.0000 </r>
       <r>   -43.1543     0.0000     6.0000 </r>
       <r>   -42.9718     0.0000     6.0000 </r>
       <r>   -42.7894     0.0000     6.0000 </r>
       <r>   -42.6070     0.0000     6.0000 </r>
       <r>   -42.4245     0.0000     6.0000 </r>
       <r>   -42.2421     0.0000     6.0000 </r>
       <r>   -42.0597     0.0000     6.0000 </r>
       <r>   -41.8772     0.0000     6.0000 </r>
       <r>   -41.6948     0.0000     6.0000 </r>
       <r>   -41.5124     0.0000     6.0000 </r>
       <r>   -41.3299     0.0000     6.0000 </r>
       <r>   -41.1475     0.0000     6.0000 </r>
       <r>   -40.9650     0.0000     6.0000 </r>
       <r>   -40.7826     0.0000     6.0000 </r>
       <r>   -40.6002     0.0000     6.0000 </r>
       <r>   -40.4177     0.0000     6.0000 </r>
       <r>   -40.2353     0.0000     6.0000 </r>
       <r>   -40.0529     0.0000     6.0000 </r>
       <r>   -39.8704     0.0000     6.0000 </r>
       <r>   -39.6880     0.0000     6.0000 </r>
       <r>   -39.5056     0.0000     6.0000 </r>
       <r>   -39.3231     0.0000     6.0000 </r>
       <r>   -39.1407     0.0000     6.0000 </r>
       <r>   -38.9583     0.0000     6.0000 </r>
       <r>   -38.7758     0.0000     6.0000 </r>
       <r>   -38.5934     0.0000     6.0000 </r>
       <r>   -38.4109     0.0000     6.0000 </r>
       <r>   -38.2285     0.0000     6.0000 </r>
       <r>   -38.0461     0.0000     6.0000 </r>
       <r>   -37.8636     0.0000     6.0000 </r>
       <r>   -37.6812     0.0000     6.0000 </r>
       <r>   -37.4988     0.0000     6.0000 </r>
       <r>   -37.3163     0.0000     6.0000 </r>
       <r>   -37.1339     0.0000     6.0000 </r>
       <r>   -36.9515     0.0000     6.0000 </r>
       <r>   -36.7690     0.0000     6.0000 </r>
       <r>   -36.5866     0.0000     6.0000 </r>
       <r>   -36.4042     0.0000     6.0000 </r>
       <r>   -36.2217     0.0000     6.0000 </r>
       <r>   -36.0393     0.0000     6.0000 </r>
       <r>   -35.8569     0.0000     6.0000 </r>
       <r>   -35.6744     0.0000     6.0000 </r>
       <r>   -35.4920     0.0000     6.0000 </r>
       <r>   -35.3095     0.0000     6.0000 </r>
       <r>   -35.1271     0.0000     6.0000 </r>
       <r>   -34.9447     0.0000     6.0000 </r>
       <r>   -34.7622     0.0000     6.0000 </r>
       <r>   -34.5798     0.0000     6.0000 </r>
       <r>   -34.3974     0.0000     6.0000 </r>
       <r>   -34.2149     0.0000     6.0000 </r>
       <r>   -34.0325     0.0000     6.0000 </r>
       <r>   -33.8501     0.0000     6.0000 </r>
       <r>   -33.6676     0.0000     6.0000 </r>
       <r>   -33.4852     0.0000     6.0000 </r>
       <r>   -33.3028     0.0000     6.0000 </r>
       <r>   -33.1203     0.0000     6.0000 </r>
       <r>   -32.9379     0.0000     6.0000 </r>
       <r>   -32.7554     0.0000     6.0000 </r>
       <r>   -32.5730     0.0000     6.0000 </r>
       <r>   -32.3906     0.0000     6.0000 </r>
       <r>   -32.2081     0.0000     6.0000 </r>
       <r>   -32.0257     0.0000     6.0000 </r>
       <r>   -31.8433     0.0000     6.0000 </r>
       <r>   -31.6608     0.0000     6.0000 </r>
       <r>   -31.4784     0.0000     6.0000 </r>
       <r>   -31.2960     0.0000     6.0000 </r>
       <r>   -31.1135     0.0000     6.0000 </r>
       <r>   -30.9311     0.0000     6.0000 </r>
       <r>   -30.7487     0.0000     6.0000 </r>
       <r>   -30.5662     0.0000     6.0000 </r>
       <r>   -30.3838     0.0000     6.0000 </r>
       <r>   -30.2013     0.0000     6.0000 </r>
       <r>   -30.0189     0.0000     6.0000 </r>
       <r>   -29.8365     0.0000     6.0000 </r>
       <r>   -29.6540     0.0000     6.0000 </r>
       <r>   -29.4716     0.0000     6.0000 </r>
       <r>   -29.2892     0.0000     6.0000 </r>
       <r>   -29.1067    10.9628     8.0000 </r>
       <r>   -28.9243     0.0000     8.0000 </r>
       <r>   -28.7419     0.0000     8.0000 </r>
       <r>   -28.5594     0.0000     8.0000 </r>
       <r>   -28.3770     0.0000     8.0000 </r>
       <r>   -28.1946     0.0000     8.0000 </r>
       <r>   -28.0121     0.0000     8.0000 </r>
       <r>   -27.8297     0.0000     8.0000 </r>
       <r>   -27.6473     0.0000    10.0000 </r>
       <r>   -27.4648     0.0000    10.0000 </r>
       <r>   -27.2824     0.0000    10.0000 </r>
       <r>   -27.0999     0.0000    10.0000 </r>
       <r>   -26.9175    10.9517    11.9980 </r>
       <r>   -26.7351    10.9628    14.0000 </r>
       <r>   -26.5526     0.0000    14.0000 </r>
       <r>   -26.3702     0.0000    14.0000 </r>
       <r>   -26.1878     9.4477    15.7236 </r>
       <r>   -26.0053     0.0000    18.0000 </r>
       <r>   -25.8229     0.0000    18.0000 </r>
       <r>   -25.6405     0.0000    18.0000 </r>
       <r>   -25.4580     0.0000    18.0000 </r>
       <r>   -25.2756     0.0000    18.0000 </r>
       <r>   -25.0932     0.0000    18.0000 </r>
       <r>   -24.9107     0.0000    18.0000 </r>
       <r>   -24.7283     0.0000    18.0000 </r>
       <r>   -24.5458     0.0000    18.0000 </r>
       <r>   -24.3634     0.0000    18.0000 </r>
       <r>   -24.1810     0.0000    18.0000 </r>
       <r>   -23.9985     0.0000    18.0000 </r>
       <r>   -23.8161     0.0000    18.0000 </r>
       <r>   -23.6337     0.0000    18.0000 </r>
       <r>   -23.4512     0.0000    18.0000 </r>
       <r>   -23.2688     9.1716    19.6732 </r>
       <r>   -23.0864     0.0000    20.0000 </r>
       <r>   -22.9039     0.0000    20.0000 </r>
       <r>   -22.7215    10.9613    21.9997 </r>
       <r>   -22.5391     0.0000    22.0000 </r>
       <r>   -22.3566    18.0166    27.2869 </r>
       <r>   -22.1742    21.7796    33.9734 </r>
       <r>   -21.9917     0.0000    34.0000 </r>
       <r>   -21.8093     0.0000    34.0000 </r>
       <r>   -21.6269     0.0000    34.0000 </r>
       <r>   -21.4444     0.0000    34.0000 </r>
       <r>   -21.2620     0.0000    34.0000 </r>
       <r>   -21.0796     0.0000    34.0000 </r>
       <r>   -20.8971     0.0000    34.0000 </r>
       <r>   -20.7147    10.9628    38.0000 </r>
       <r>   -20.5323     0.0000    38.0000 </r>
       <r>   -20.3498     0.0000    38.0000 </r>
       <r>   -20.1674     0.0000    38.0000 </r>
       <r>   -19.9850     0.0000    38.0000 </r>
       <r>   -19.8025     0.0000    38.0000 </r>
       <r>   -19.6201     0.0000    38.0000 </r>
       <r>   -19.4376     0.0000    38.0000 </r>
       <r>   -19.2552     0.0000    38.0000 </r>
       <r>   -19.0728     0.0000    40.0000 </r>
       <r>   -18.8903     0.0000    42.0000 </r>
       <r>   -18.7079    15.9735    44.9141 </r>
       <r>   -18.5255     0.0000    46.0000 </r>
       <r>   -18.3430     0.0000    50.0000 </r>
       <r>   -18.1606     0.0000    50.0000 </r>
       <r>   -17.9782     0.0000    50.0000 </r>
       <r>   -17.7957     0.0000    50.0000 </r>
       <r>   -17.6133    12.6058    52.2997 </r>
       <r>   -17.4309     0.0000    54.0000 </r>
       <r>   -17.2484    10.9628    58.0000 </r>
       <r>   -17.0660     0.0000    58.0000 </r>
       <r>   -16.8836     9.4910    59.7315 </r>
       <r>   -16.7011     0.0000    60.0000 </r>
       <r>   -16.5187     0.0000    62.0000 </r>
       <r>   -16.3362     0.0000    62.0000 </r>
       <r>   -16.1538     0.0000    62.0000 </r>
       <r>   -15.9714     0.0369    62.0067 </r>
       <r>   -15.7889     0.0000    64.0000 </r>
       <r>   -15.6065     0.0000    66.0000 </r>
       <r>   -15.4241    10.9628    68.0000 </r>
       <r>   -15.2416     0.0000    68.0000 </r>
       <r>   -15.0592     0.0000    68.0000 </r>
       <r>   -14.8768     0.0000    68.0000 </r>
       <r>   -14.6943    23.8118    74.3441 </r>
       <r>   -14.5119    10.9628    78.0000 </r>
       <r>   -14.3295     0.0000    78.0000 </r>
       <r>   -14.1470    10.9628    80.0000 </r>
       <r>   -13.9646    10.9621    83.9999 </r>
       <r>   -13.7821    27.3267    88.9854 </r>
       <r>   -13.5997     0.0000    92.0000 </r>
       <r>   -13.4173    10.9657    94.0005 </r>
       <r>   -13.2348     0.0162    96.0030 </r>
       <r>   -13.0524     0.0000   100.0000 </r>
       <r>   -12.8700    10.9628   104.0000 </r>
       <r>   -12.6875     0.0000   108.0000 </r>
       <r>   -12.5051     0.0000   110.0000 </r>
       <r>   -12.3227    10.9628   114.0000 </r>
       <r>   -12.1402    19.6785   117.5901 </r>
       <r>   -11.9578     0.0000   118.0000 </r>
       <r>   -11.7754     0.0000   120.0000 </r>
       <r>   -11.5929     0.0000   120.0000 </r>
       <r>   -11.4105    10.9628   122.0000 </r>
       <r>   -11.2280    10.9628   126.0000 </r>
       <r>   -11.0456    32.8883   132.0000 </r>
       <r>   -10.8632     0.0000   132.0000 </r>
       <r>   -10.6807    10.9628   134.0000 </r>
       <r>   -10.4983    10.9629   136.0000 </r>
       <r>   -10.3159     0.0000   138.0000 </r>
       <r>   -10.1334    10.9628   142.0000 </r>
       <r>    -9.9510    10.8894   143.9866 </r>
       <r>    -9.7686    21.7136   149.9613 </r>
       <r>    -9.5861     0.0000   154.0000 </r>
       <r>    -9.4037     0.0000   156.0000 </r>
       <r>    -9.2213     0.0000   156.0000 </r>
       <r>    -9.0388     0.0000   156.0000 </r>
       <r>    -8.8564     0.0000   156.0000 </r>
       <r>    -8.6740     0.0000   156.0000 </r>
       <r>    -8.4915     0.0000   156.0000 </r>
       <r>    -8.3091    10.9628   160.0000 </r>
       <r>    -8.1266     0.0000   160.0000 </r>
       <r>    -7.9442     0.0000   160.0000 </r>
       <r>    -7.7618     0.0000   160.0000 </r>
       <r>    -7.5793     0.0000   160.0000 </r>
       <r>    -7.3969    10.9628   162.0000 </r>
       <r>    -7.2145    10.9626   164.0000 </r>
       <r>    -7.0320     0.0000   166.0000 </r>
       <r>    -6.8496     0.0000   166.0000 </r>
       <r>    -6.6672     0.0000   166.0000 </r>
       <r>    -6.4847     0.0000   166.0000 </r>
       <r>    -6.3023     0.0000   166.0000 </r>
       <r>    -6.1199     0.0000   166.0000 </r>
       <r>    -5.9374     0.0000   166.0000 </r>
       <r>    -5.7550     0.0000   166.0000 </r>
       <r>    -5.5725     0.0000   166.0000 </r>
       <r>    -5.3901    10.9628   168.0000 </r>
       <r>    -5.2077     0.0000   168.0000 </r>
       <r>    -5.0252     7.0525   169.2866 </r>
       <r>    -4.8428     0.0000   172.0000 </r>
       <r>    -4.6604    10.9628   174.0000 </r>
       <r>    -4.4779     0.0000   174.0000 </r>
       <r>    -4.2955     5.7825   175.0549 </r>
       <r>    -4.1131     0.1330   176.0243 </r>
       <r>    -3.9306    10.9624   181.9999 </r>
       <r>    -3.7482    10.9628   184.0000 </r>
       <r>    -3.5658     0.0000   184.0000 </r>
       <r>    -3.3833     0.0000   184.0000 </r>
       <r>    -3.2009     4.1146   184.7507 </r>
       <r>    -3.0184     0.0000   186.0000 </r>
       <r>    -2.8360    10.9622   187.9999 </r>
       <r>    -2.6536    10.9628   192.0000 </r>
       <r>    -2.4711     0.0000   192.0000 </r>
       <r>    -2.2887     0.0000   192.0000 </r>
       <r>    -2.1063     0.0000   192.0000 </r>
       <r>    -1.9238     0.0000   194.0000 </r>
       <r>    -1.7414     0.0000   194.0000 </r>
       <r>    -1.5590    10.9495   197.9976 </r>
       <r>    -1.3765    10.9628   200.0000 </r>
       <r>    -1.1941     3.6754   200.6705 </r>
       <r>    -1.0117     3.7612   204.6862 </r>
       <r>    -0.8292    10.9628   212.0000 </r>
       <r>    -0.6468    10.9627   216.0000 </r>
       <r>    -0.4643     7.3642   219.3435 </r>
       <r>    -0.2819    10.9628   226.0000 </r>
       <r>    -0.0995    12.4750   230.2759 </r>
       <r>     0.0830     0.9203   234.1679 </r>
       <r>     0.2654    10.9628   238.0000 </r>
       <r>     0.4478    11.7746   242.1481 </r>
       <r>     0.6303    22.2743   250.0636 </r>
       <r>     0.8127     0.0000   256.0000 </r>
       <r>     0.9951     0.0000   256.0000 </r>
       <r>     1.1776     0.0000   256.0000 </r>
       <r>     1.3600     0.0000   256.0000 </r>
       <r>     1.5424     0.0000   256.0000 </r>
       <r>     1.7249     0.0000   256.0000 </r>
       <r>     1.9073     0.0000   256.0000 </r>
       <r>     2.0897     0.0000   256.0000 </r>
       <r>     2.2722     0.0000   256.0000 </r>
       <r>     2.4546     0.0000   256.0000 </r>
       <r>     2.6371     0.0000   256.0000 </r>
       <r>     2.8195     0.0000   256.0000 </r>
       <r>     3.0019     0.0000   256.0000 </r>
       <r>     3.1844     0.0000   256.0000 </r>
      </set>
     </set>
    </array>
   </total>
  </dos>
 </calculation>
 <structure name="finalpos" >
  <crystal>
   <varray name="basis" >
    <v>      20.00000000       0.00000000       0.00000000 </v>
    <v>       0.00000000      20.00000000       0.00000000 </v>
    <v>       0.00000000       0.00000000      20.00000000 </v>
   </varray>
   <i name="volume">   8000.00000000 </i>
   <varray name="rec_basis" >
    <v>       0.05000000       0.00000000       0.00000000 </v>
    <v>       0.00000000       0.05000000       0.00000000 </v>
    <v>       0.00000000       0.00000000       0.05000000 </v>
   </varray>
  </crystal>
  <varray name="positions" >
   <v>       0.47372925       0.61530131       0.44986522 </v>
   <v>       0.43793752       0.56561110       0.32757008 </v>
   <v>       0.45581208       0.52423376       0.38051465 </v>
   <v>       0.29334713       0.47671938       0.56830116 </v>
   <v>       0.45595175       0.65963312       0.39935201 </v>
   <v>       0.43785737       0.63472201       0.33675972 </v>
   <v>       0.52307882       0.32955005       0.67474498 </v>
   <v>       0.49710163       0.37190466       0.62618823 </v>
   <v>       0.60227374       0.41933300       0.60593616 </v>
   <v>       0.63096398       0.37761922       0.65422416 </v>
   <v>       0.73964927       0.52855915       0.53463181 </v>
   <v>       0.70082162       0.56612858       0.49044049 </v>
   <v>       0.63257913       0.55363620       0.48652424 </v>
   <v>       0.63952130       0.46927713       0.56732841 </v>
   <v>       0.70843899       0.47974495       0.57314689 </v>
   <v>       0.59134754       0.33224398       0.68903016 </v>
   <v>       0.36211554       0.48866484       0.56417415 </v>
   <v>       0.40790931       0.62211625       0.69058213 </v>
   <v>       0.47619960       0.62606623       0.67660612 </v>
   <v>       0.50295190       0.58590820       0.62668073 </v>
   <v>       0.39825425       0.53800137       0.60426081 </v>
   <v>       0.36904589       0.57756069       0.65398228 </v>
   <v>       0.37289802       0.40579857       0.48223443 </v>
   <v>       0.30486503       0.39173492       0.48443166 </v>
   <v>       0.26422003       0.42785518       0.52821594 </v>
   <v>       0.48989745       0.29510618       0.70074864 </v>
   <v>       0.61334240       0.29968355       0.72673159 </v>
   <v>       0.68424189       0.38076917       0.66478776 </v>
   <v>       0.54225374       0.36233861       0.46129841 </v>
   <v>       0.31579090       0.57306911       0.66420366 </v>
   <v>       0.44416348       0.37118871       0.61364770 </v>
   <v>       0.42392665       0.66833230       0.29622671 </v>
   <v>       0.45642762       0.71313270       0.40950260 </v>
   <v>       0.48809132       0.63358802       0.49907234 </v>
   <v>       0.56912778       0.41808713       0.41480476 </v>
   <v>       0.73767440       0.44963919       0.60776512 </v>
   <v>       0.72277620       0.60481012       0.45904817 </v>
   <v>       0.45570253       0.47012894       0.37468790 </v>
   <v>       0.40614333       0.37888556       0.44852541 </v>
   <v>       0.28443799       0.35306162       0.45202062 </v>
   <v>       0.79326502       0.53703787       0.53892527 </v>
   <v>       0.55589708       0.58769132       0.61440612 </v>
   <v>       0.42412006       0.54328620       0.27986105 </v>
   <v>       0.50894741       0.65984570       0.70400156 </v>
   <v>       0.26265982       0.50568523       0.60265428 </v>
   <v>       0.21072272       0.41813760       0.53105039 </v>
   <v>       0.60090654       0.58197914       0.45254259 </v>
   <v>       0.38544357       0.65296704       0.72941133 </v>
   <v>       0.47424490       0.54794204       0.44140236 </v>
   <v>       0.40180479       0.45306079       0.52108436 </v>
   <v>       0.53520702       0.41608490       0.59173240 </v>
   <v>       0.46544808       0.54254992       0.59041194 </v>
   <v>       0.60138410       0.50650621       0.52397638 </v>
   <v>       0.53073984       0.40562607       0.44215451 </v>
   <v>       0.50088568       0.48087016       0.51934246 </v>
  </varray>
  <varray name="selective"  type="logical" >
   <v type="logical" >  T  T  T </v>
   <v type="logical" >  T  T  T </v>
   <v type="logical" >  T  T  T </v>
   <v type="logical" >  T  T  T </v>
   <v type="logical" >  T  T  T </v>
   <v type="logical" >  T  T  T </v>
   <v type="logical" >  T  T  T </v>
   <v type="logical" >  T  T  T </v>
   <v type="logical" >  T  T  T </v>
   <v type="logical" >  T  T  T </v>
   <v type="logical" >  T  T  T </v>
   <v type="logical" >  T  T  T </v>
   <v type="logical" >  T  T  T </v>
   <v type="logical" >  T  T  T </v>
   <v type="logical" >  T  T  T </v>
   <v type="logical" >  T  T  T </v>
   <v type="logical" >  T  T  T </v>
   <v type="logical" >  T  T  T </v>
   <v type="logical" >  T  T  T </v>
   <v type="logical" >  T  T  T </v>
   <v type="logical" >  T  T  T </v>
   <v type="logical" >  T  T  T </v>
   <v type="logical" >  T  T  T </v>
   <v type="logical" >  T  T  T </v>
   <v type="logical" >  T  T  T </v>
   <v type="logical" >  T  T  T </v>
   <v type="logical" >  T  T  T </v>
   <v type="logical" >  T  T  T </v>
   <v type="logical" >  T  T  T </v>
   <v type="logical" >  T  T  T </v>
   <v type="logical" >  T  T  T </v>
   <v type="logical" >  T  T  T </v>
   <v type="logical" >  T  T  T </v>
   <v type="logical" >  T  T  T </v>
   <v type="logical" >  T  T  T </v>
   <v type="logical" >  T  T  T </v>
   <v type="logical" >  T  T  T </v>
   <v type="logical" >  T  T  T </v>
   <v type="logical" >  T  T  T </v>
   <v type="logical" >  T  T  T </v>
   <v type="logical" >  T  T  T </v>
   <v type="logical" >  T  T  T </v>
   <v type="logical" >  T  T  T </v>
   <v type="logical" >  T  T  T </v>
   <v type="logical" >  T  T  T </v>
   <v type="logical" >  T  T  T </v>
   <v type="logical" >  T  T  T </v>
   <v type="logical" >  T  T  T </v>
   <v type="logical" >  T  T  T </v>
   <v type="logical" >  T  T  T </v>
   <v type="logical" >  T  T  T </v>
   <v type="logical" >  T  T  T </v>
   <v type="logical" >  T  T  T </v>
   <v type="logical" >  T  T  T </v>
   <v type="logical" >  T  T  T </v>
  </varray>
  <nose>
   <v>      -3.00000000       0.00000000       0.00010000       0.00010000 </v>
  </nose>
 </structure>
</modeling>
