  55  55   0   0
  0.1454545E+03  0.2000000E-08  0.2000000E-08  0.2000000E-08  0.5000000E-15
  1.000000000000000E-004
  CAR 
 c2_oh2_ruthenium_mol                    
      3.16176402    -51.60368262  301     -7.01548148      1.00000000
    -51.604  0.0000E+00  0.0000E+00  0.0000E+00  0.0000E+00
    -51.421  0.0000E+00  0.0000E+00  0.0000E+00  0.0000E+00
    -51.239  0.0000E+00  0.0000E+00  0.0000E+00  0.0000E+00
    -51.056  0.0000E+00  0.0000E+00  0.0000E+00  0.0000E+00
    -50.873  0.0000E+00  0.0000E+00  0.0000E+00  0.0000E+00
    -50.691  0.0000E+00  0.0000E+00  0.0000E+00  0.0000E+00
    -50.508  0.0000E+00  0.0000E+00  0.0000E+00  0.0000E+00
    -50.326  0.0000E+00  0.0000E+00  0.0000E+00  0.0000E+00
    -50.143  0.0000E+00  0.0000E+00  0.0000E+00  0.0000E+00
    -49.961  0.0000E+00  0.0000E+00  0.0000E+00  0.0000E+00
    -49.778  0.0000E+00  0.0000E+00  0.0000E+00  0.0000E+00
    -49.596  0.0000E+00  0.0000E+00  0.0000E+00  0.0000E+00
    -49.413  0.0000E+00  0.0000E+00  0.0000E+00  0.0000E+00
    -49.231  0.0000E+00  0.0000E+00  0.0000E+00  0.0000E+00
    -49.048  0.1096E+02  0.1096E+02  0.2000E+01  0.2000E+01
    -48.865  0.0000E+00  0.0000E+00  0.4000E+01  0.4000E+01
    -48.683  0.1096E+02  0.1096E+02  0.6000E+01  0.6000E+01
    -48.500  0.0000E+00  0.0000E+00  0.6000E+01  0.6000E+01
    -48.318  0.0000E+00  0.0000E+00  0.6000E+01  0.6000E+01
    -48.135  0.0000E+00  0.0000E+00  0.6000E+01  0.6000E+01
    -47.953  0.0000E+00  0.0000E+00  0.6000E+01  0.6000E+01
    -47.770  0.0000E+00  0.0000E+00  0.6000E+01  0.6000E+01
    -47.588  0.0000E+00  0.0000E+00  0.6000E+01  0.6000E+01
    -47.405  0.0000E+00  0.0000E+00  0.6000E+01  0.6000E+01
    -47.222  0.0000E+00  0.0000E+00  0.6000E+01  0.6000E+01
    -47.040  0.0000E+00  0.0000E+00  0.6000E+01  0.6000E+01
    -46.857  0.0000E+00  0.0000E+00  0.6000E+01  0.6000E+01
    -46.675  0.0000E+00  0.0000E+00  0.6000E+01  0.6000E+01
    -46.492  0.0000E+00  0.0000E+00  0.6000E+01  0.6000E+01
    -46.310  0.0000E+00  0.0000E+00  0.6000E+01  0.6000E+01
    -46.127  0.0000E+00  0.0000E+00  0.6000E+01  0.6000E+01
    -45.945  0.0000E+00  0.0000E+00  0.6000E+01  0.6000E+01
    -45.762  0.0000E+00  0.0000E+00  0.6000E+01  0.6000E+01
    -45.579  0.0000E+00  0.0000E+00  0.6000E+01  0.6000E+01
    -45.397  0.0000E+00  0.0000E+00  0.6000E+01  0.6000E+01
    -45.214  0.0000E+00  0.0000E+00  0.6000E+01  0.6000E+01
    -45.032  0.0000E+00  0.0000E+00  0.6000E+01  0.6000E+01
    -44.849  0.0000E+00  0.0000E+00  0.6000E+01  0.6000E+01
    -44.667  0.0000E+00  0.0000E+00  0.6000E+01  0.6000E+01
    -44.484  0.0000E+00  0.0000E+00  0.6000E+01  0.6000E+01
    -44.302  0.0000E+00  0.0000E+00  0.6000E+01  0.6000E+01
    -44.119  0.0000E+00  0.0000E+00  0.6000E+01  0.6000E+01
    -43.937  0.0000E+00  0.0000E+00  0.6000E+01  0.6000E+01
    -43.754  0.0000E+00  0.0000E+00  0.6000E+01  0.6000E+01
    -43.571  0.0000E+00  0.0000E+00  0.6000E+01  0.6000E+01
    -43.389  0.0000E+00  0.0000E+00  0.6000E+01  0.6000E+01
    -43.206  0.0000E+00  0.0000E+00  0.6000E+01  0.6000E+01
    -43.024  0.0000E+00  0.0000E+00  0.6000E+01  0.6000E+01
    -42.841  0.0000E+00  0.0000E+00  0.6000E+01  0.6000E+01
    -42.659  0.0000E+00  0.0000E+00  0.6000E+01  0.6000E+01
    -42.476  0.0000E+00  0.0000E+00  0.6000E+01  0.6000E+01
    -42.294  0.0000E+00  0.0000E+00  0.6000E+01  0.6000E+01
    -42.111  0.0000E+00  0.0000E+00  0.6000E+01  0.6000E+01
    -41.928  0.0000E+00  0.0000E+00  0.6000E+01  0.6000E+01
    -41.746  0.0000E+00  0.0000E+00  0.6000E+01  0.6000E+01
    -41.563  0.0000E+00  0.0000E+00  0.6000E+01  0.6000E+01
    -41.381  0.0000E+00  0.0000E+00  0.6000E+01  0.6000E+01
    -41.198  0.0000E+00  0.0000E+00  0.6000E+01  0.6000E+01
    -41.016  0.0000E+00  0.0000E+00  0.6000E+01  0.6000E+01
    -40.833  0.0000E+00  0.0000E+00  0.6000E+01  0.6000E+01
    -40.651  0.0000E+00  0.0000E+00  0.6000E+01  0.6000E+01
    -40.468  0.0000E+00  0.0000E+00  0.6000E+01  0.6000E+01
    -40.285  0.0000E+00  0.0000E+00  0.6000E+01  0.6000E+01
    -40.103  0.0000E+00  0.0000E+00  0.6000E+01  0.6000E+01
    -39.920  0.0000E+00  0.0000E+00  0.6000E+01  0.6000E+01
    -39.738  0.0000E+00  0.0000E+00  0.6000E+01  0.6000E+01
    -39.555  0.0000E+00  0.0000E+00  0.6000E+01  0.6000E+01
    -39.373  0.0000E+00  0.0000E+00  0.6000E+01  0.6000E+01
    -39.190  0.0000E+00  0.0000E+00  0.6000E+01  0.6000E+01
    -39.008  0.0000E+00  0.0000E+00  0.6000E+01  0.6000E+01
    -38.825  0.0000E+00  0.0000E+00  0.6000E+01  0.6000E+01
    -38.643  0.0000E+00  0.0000E+00  0.6000E+01  0.6000E+01
    -38.460  0.0000E+00  0.0000E+00  0.6000E+01  0.6000E+01
    -38.277  0.0000E+00  0.0000E+00  0.6000E+01  0.6000E+01
    -38.095  0.0000E+00  0.0000E+00  0.6000E+01  0.6000E+01
    -37.912  0.0000E+00  0.0000E+00  0.6000E+01  0.6000E+01
    -37.730  0.0000E+00  0.0000E+00  0.6000E+01  0.6000E+01
    -37.547  0.0000E+00  0.0000E+00  0.6000E+01  0.6000E+01
    -37.365  0.0000E+00  0.0000E+00  0.6000E+01  0.6000E+01
    -37.182  0.0000E+00  0.0000E+00  0.6000E+01  0.6000E+01
    -37.000  0.0000E+00  0.0000E+00  0.6000E+01  0.6000E+01
    -36.817  0.0000E+00  0.0000E+00  0.6000E+01  0.6000E+01
    -36.634  0.0000E+00  0.0000E+00  0.6000E+01  0.6000E+01
    -36.452  0.0000E+00  0.0000E+00  0.6000E+01  0.6000E+01
    -36.269  0.0000E+00  0.0000E+00  0.6000E+01  0.6000E+01
    -36.087  0.0000E+00  0.0000E+00  0.6000E+01  0.6000E+01
    -35.904  0.0000E+00  0.0000E+00  0.6000E+01  0.6000E+01
    -35.722  0.0000E+00  0.0000E+00  0.6000E+01  0.6000E+01
    -35.539  0.0000E+00  0.0000E+00  0.6000E+01  0.6000E+01
    -35.357  0.0000E+00  0.0000E+00  0.6000E+01  0.6000E+01
    -35.174  0.0000E+00  0.0000E+00  0.6000E+01  0.6000E+01
    -34.991  0.0000E+00  0.0000E+00  0.6000E+01  0.6000E+01
    -34.809  0.0000E+00  0.0000E+00  0.6000E+01  0.6000E+01
    -34.626  0.0000E+00  0.0000E+00  0.6000E+01  0.6000E+01
    -34.444  0.0000E+00  0.0000E+00  0.6000E+01  0.6000E+01
    -34.261  0.0000E+00  0.0000E+00  0.6000E+01  0.6000E+01
    -34.079  0.0000E+00  0.0000E+00  0.6000E+01  0.6000E+01
    -33.896  0.0000E+00  0.0000E+00  0.6000E+01  0.6000E+01
    -33.714  0.0000E+00  0.0000E+00  0.6000E+01  0.6000E+01
    -33.531  0.0000E+00  0.0000E+00  0.6000E+01  0.6000E+01
    -33.349  0.0000E+00  0.0000E+00  0.6000E+01  0.6000E+01
    -33.166  0.0000E+00  0.0000E+00  0.6000E+01  0.6000E+01
    -32.983  0.0000E+00  0.0000E+00  0.6000E+01  0.6000E+01
    -32.801  0.0000E+00  0.0000E+00  0.6000E+01  0.6000E+01
    -32.618  0.0000E+00  0.0000E+00  0.6000E+01  0.6000E+01
    -32.436  0.0000E+00  0.0000E+00  0.6000E+01  0.6000E+01
    -32.253  0.0000E+00  0.0000E+00  0.6000E+01  0.6000E+01
    -32.071  0.0000E+00  0.0000E+00  0.6000E+01  0.6000E+01
    -31.888  0.0000E+00  0.0000E+00  0.6000E+01  0.6000E+01
    -31.706  0.0000E+00  0.0000E+00  0.6000E+01  0.6000E+01
    -31.523  0.0000E+00  0.0000E+00  0.6000E+01  0.6000E+01
    -31.340  0.0000E+00  0.0000E+00  0.6000E+01  0.6000E+01
    -31.158  0.0000E+00  0.0000E+00  0.6000E+01  0.6000E+01
    -30.975  0.0000E+00  0.0000E+00  0.6000E+01  0.6000E+01
    -30.793  0.0000E+00  0.0000E+00  0.6000E+01  0.6000E+01
    -30.610  0.0000E+00  0.0000E+00  0.6000E+01  0.6000E+01
    -30.428  0.0000E+00  0.0000E+00  0.6000E+01  0.6000E+01
    -30.245  0.0000E+00  0.0000E+00  0.6000E+01  0.6000E+01
    -30.063  0.0000E+00  0.0000E+00  0.6000E+01  0.6000E+01
    -29.880  0.0000E+00  0.0000E+00  0.6000E+01  0.6000E+01
    -29.698  0.0000E+00  0.0000E+00  0.6000E+01  0.6000E+01
    -29.515  0.0000E+00  0.0000E+00  0.6000E+01  0.6000E+01
    -29.332  0.0000E+00  0.0000E+00  0.6000E+01  0.6000E+01
    -29.150  0.4991E-02  0.4991E-02  0.6001E+01  0.6001E+01
    -28.967  0.0000E+00  0.0000E+00  0.8000E+01  0.8000E+01
    -28.785  0.0000E+00  0.0000E+00  0.8000E+01  0.8000E+01
    -28.602  0.0000E+00  0.0000E+00  0.8000E+01  0.8000E+01
    -28.420  0.0000E+00  0.0000E+00  0.8000E+01  0.8000E+01
    -28.237  0.0000E+00  0.0000E+00  0.8000E+01  0.8000E+01
    -28.055  0.0000E+00  0.0000E+00  0.8000E+01  0.8000E+01
    -27.872  0.0000E+00  0.0000E+00  0.8000E+01  0.8000E+01
    -27.689  0.0000E+00  0.0000E+00  0.8000E+01  0.8000E+01
    -27.507  0.0000E+00  0.0000E+00  0.1000E+02  0.1000E+02
    -27.324  0.0000E+00  0.0000E+00  0.1000E+02  0.1000E+02
    -27.142  0.0000E+00  0.0000E+00  0.1000E+02  0.1000E+02
    -26.959  0.0000E+00  0.0000E+00  0.1000E+02  0.1000E+02
    -26.777  0.1096E+02  0.1096E+02  0.1200E+02  0.1200E+02
    -26.594  0.6910E+01  0.6910E+01  0.1326E+02  0.1326E+02
    -26.412  0.0000E+00  0.0000E+00  0.1400E+02  0.1400E+02
    -26.229  0.2433E-14  0.2433E-14  0.1400E+02  0.1400E+02
    -26.046  0.0000E+00  0.0000E+00  0.1800E+02  0.1800E+02
    -25.864  0.0000E+00  0.0000E+00  0.1800E+02  0.1800E+02
    -25.681  0.0000E+00  0.0000E+00  0.1800E+02  0.1800E+02
    -25.499  0.0000E+00  0.0000E+00  0.1800E+02  0.1800E+02
    -25.316  0.0000E+00  0.0000E+00  0.1800E+02  0.1800E+02
    -25.134  0.0000E+00  0.0000E+00  0.1800E+02  0.1800E+02
    -24.951  0.0000E+00  0.0000E+00  0.1800E+02  0.1800E+02
    -24.769  0.0000E+00  0.0000E+00  0.1800E+02  0.1800E+02
    -24.586  0.0000E+00  0.0000E+00  0.1800E+02  0.1800E+02
    -24.404  0.0000E+00  0.0000E+00  0.1800E+02  0.1800E+02
    -24.221  0.0000E+00  0.0000E+00  0.1800E+02  0.1800E+02
    -24.038  0.1096E+02  0.1096E+02  0.2000E+02  0.2000E+02
    -23.856  0.0000E+00  0.0000E+00  0.2000E+02  0.2000E+02
    -23.673  0.0000E+00  0.0000E+00  0.2000E+02  0.2000E+02
    -23.491  0.0000E+00  0.0000E+00  0.2000E+02  0.2000E+02
    -23.308  0.0000E+00  0.0000E+00  0.2000E+02  0.2000E+02
    -23.126  0.0000E+00  0.0000E+00  0.2000E+02  0.2000E+02
    -22.943  0.0000E+00  0.0000E+00  0.2200E+02  0.2200E+02
    -22.761  0.0000E+00  0.0000E+00  0.2200E+02  0.2200E+02
    -22.578  0.8072E+01  0.8072E+01  0.2347E+02  0.2347E+02
    -22.395  0.1096E+02  0.1096E+02  0.2600E+02  0.2600E+02
    -22.213  0.1982E+01  0.1982E+01  0.2836E+02  0.2836E+02
    -22.030  0.1071E+02  0.1071E+02  0.3196E+02  0.3196E+02
    -21.848  0.0000E+00  0.0000E+00  0.3200E+02  0.3200E+02
    -21.665  0.0000E+00  0.0000E+00  0.3200E+02  0.3200E+02
    -21.483  0.1095E+02  0.1095E+02  0.3400E+02  0.3400E+02
    -21.300  0.0000E+00  0.0000E+00  0.3400E+02  0.3400E+02
    -21.118  0.8569E+01  0.8569E+01  0.3556E+02  0.3556E+02
    -20.935  0.0000E+00  0.0000E+00  0.3600E+02  0.3600E+02
    -20.752  0.1096E+02  0.1096E+02  0.3800E+02  0.3800E+02
    -20.570  0.0000E+00  0.0000E+00  0.3800E+02  0.3800E+02
    -20.387  0.0000E+00  0.0000E+00  0.3800E+02  0.3800E+02
    -20.205  0.0000E+00  0.0000E+00  0.3800E+02  0.3800E+02
    -20.022  0.0000E+00  0.0000E+00  0.3800E+02  0.3800E+02
    -19.840  0.0000E+00  0.0000E+00  0.3800E+02  0.3800E+02
    -19.657  0.9296E-07  0.9296E-07  0.3800E+02  0.3800E+02
    -19.475  0.0000E+00  0.0000E+00  0.4000E+02  0.4000E+02
    -19.292  0.1096E+02  0.1096E+02  0.4200E+02  0.4200E+02
    -19.110  0.0000E+00  0.0000E+00  0.4200E+02  0.4200E+02
    -18.927  0.0000E+00  0.0000E+00  0.4200E+02  0.4200E+02
    -18.744  0.2856E-04  0.2856E-04  0.4200E+02  0.4200E+02
    -18.562  0.0000E+00  0.0000E+00  0.4400E+02  0.4400E+02
    -18.379  0.1096E+02  0.1096E+02  0.4600E+02  0.4600E+02
    -18.197  0.1095E+02  0.1095E+02  0.4800E+02  0.4800E+02
    -18.014  0.5802E-01  0.5802E-01  0.4801E+02  0.4801E+02
    -17.832  0.1020E+02  0.1020E+02  0.5186E+02  0.5186E+02
    -17.649  0.1405E+01  0.1405E+01  0.5226E+02  0.5226E+02
    -17.467  0.0000E+00  0.0000E+00  0.5600E+02  0.5600E+02
    -17.284  0.1066E+02  0.1066E+02  0.5795E+02  0.5795E+02
    -17.101  0.0000E+00  0.0000E+00  0.5800E+02  0.5800E+02
    -16.919  0.0000E+00  0.0000E+00  0.5800E+02  0.5800E+02
    -16.736  0.1096E+02  0.1096E+02  0.6000E+02  0.6000E+02
    -16.554  0.0000E+00  0.0000E+00  0.6200E+02  0.6200E+02
    -16.371  0.0000E+00  0.0000E+00  0.6200E+02  0.6200E+02
    -16.189  0.0000E+00  0.0000E+00  0.6200E+02  0.6200E+02
    -16.006  0.0000E+00  0.0000E+00  0.6200E+02  0.6200E+02
    -15.824  0.1096E+02  0.1096E+02  0.6400E+02  0.6400E+02
    -15.641  0.0000E+00  0.0000E+00  0.6600E+02  0.6600E+02
    -15.458  0.1315E-01  0.1315E-01  0.6600E+02  0.6600E+02
    -15.276  0.9520E+01  0.9520E+01  0.6974E+02  0.6974E+02
    -15.093  0.0000E+00  0.0000E+00  0.7000E+02  0.7000E+02
    -14.911  0.0000E+00  0.0000E+00  0.7000E+02  0.7000E+02
    -14.728  0.1096E+02  0.1096E+02  0.7400E+02  0.7400E+02
    -14.546  0.0000E+00  0.0000E+00  0.7600E+02  0.7600E+02
    -14.363  0.0000E+00  0.0000E+00  0.7800E+02  0.7800E+02
    -14.181  0.4659E-07  0.4659E-07  0.7800E+02  0.7800E+02
    -13.998  0.2191E+02  0.2191E+02  0.8400E+02  0.8400E+02
    -13.816  0.2654E-03  0.2654E-03  0.8800E+02  0.8800E+02
    -13.633  0.0000E+00  0.0000E+00  0.9000E+02  0.9000E+02
    -13.450  0.7338E-03  0.7338E-03  0.9000E+02  0.9000E+02
    -13.268  0.1733E+02  0.1733E+02  0.9716E+02  0.9716E+02
    -13.085  0.0000E+00  0.0000E+00  0.1000E+03  0.1000E+03
    -12.903  0.1096E+02  0.1096E+02  0.1040E+03  0.1040E+03
    -12.720  0.1095E+02  0.1095E+02  0.1060E+03  0.1060E+03
    -12.538  0.0000E+00  0.0000E+00  0.1080E+03  0.1080E+03
    -12.355  0.1096E+02  0.1096E+02  0.1120E+03  0.1120E+03
    -12.173  0.1096E+02  0.1096E+02  0.1160E+03  0.1160E+03
    -11.990  0.1096E+02  0.1096E+02  0.1200E+03  0.1200E+03
    -11.807  0.0000E+00  0.0000E+00  0.1200E+03  0.1200E+03
    -11.625  0.1095E+02  0.1095E+02  0.1220E+03  0.1220E+03
    -11.442  0.2151E-02  0.2151E-02  0.1220E+03  0.1220E+03
    -11.260  0.1074E+02  0.1074E+02  0.1260E+03  0.1260E+03
    -11.077  0.1841E+02  0.1841E+02  0.1314E+03  0.1314E+03
    -10.895  0.0000E+00  0.0000E+00  0.1320E+03  0.1320E+03
    -10.712  0.1096E+02  0.1096E+02  0.1360E+03  0.1360E+03
    -10.530  0.1096E+02  0.1096E+02  0.1380E+03  0.1380E+03
    -10.347  0.0000E+00  0.0000E+00  0.1400E+03  0.1400E+03
    -10.164  0.0000E+00  0.0000E+00  0.1400E+03  0.1400E+03
     -9.982  0.1096E+02  0.1096E+02  0.1420E+03  0.1420E+03
     -9.799  0.1096E+02  0.1096E+02  0.1460E+03  0.1460E+03
     -9.617  0.1078E+02  0.1078E+02  0.1520E+03  0.1520E+03
     -9.434  0.1901E+01  0.1901E+01  0.1523E+03  0.1523E+03
     -9.252  0.0000E+00  0.0000E+00  0.1540E+03  0.1540E+03
     -9.069  0.3975E-02  0.3975E-02  0.1540E+03  0.1540E+03
     -8.887  0.0000E+00  0.0000E+00  0.1560E+03  0.1560E+03
     -8.704  0.1096E+02  0.1096E+02  0.1580E+03  0.1580E+03
     -8.522  0.0000E+00  0.0000E+00  0.1580E+03  0.1580E+03
     -8.339  0.1096E+02  0.1096E+02  0.1600E+03  0.1600E+03
     -8.156  0.0000E+00  0.0000E+00  0.1600E+03  0.1600E+03
     -7.974  0.0000E+00  0.0000E+00  0.1600E+03  0.1600E+03
     -7.791  0.0000E+00  0.0000E+00  0.1600E+03  0.1600E+03
     -7.609  0.0000E+00  0.0000E+00  0.1600E+03  0.1600E+03
     -7.426  0.9879E+01  0.9879E+01  0.1618E+03  0.1618E+03
     -7.244  0.1096E+02  0.1096E+02  0.1640E+03  0.1640E+03
     -7.061  0.1096E+02  0.1096E+02  0.1660E+03  0.1660E+03
     -6.879  0.0000E+00  0.0000E+00  0.1660E+03  0.1660E+03
     -6.696  0.0000E+00  0.0000E+00  0.1660E+03  0.1660E+03
     -6.513  0.0000E+00  0.0000E+00  0.1660E+03  0.1660E+03
     -6.331  0.0000E+00  0.0000E+00  0.1660E+03  0.1660E+03
     -6.148  0.0000E+00  0.0000E+00  0.1660E+03  0.1660E+03
     -5.966  0.0000E+00  0.0000E+00  0.1660E+03  0.1660E+03
     -5.783  0.0000E+00  0.0000E+00  0.1660E+03  0.1660E+03
     -5.601  0.1093E+02  0.1093E+02  0.1680E+03  0.1680E+03
     -5.418  0.0000E+00  0.0000E+00  0.1680E+03  0.1680E+03
     -5.236  0.1096E+02  0.1096E+02  0.1700E+03  0.1700E+03
     -5.053  0.2458E-07  0.2458E-07  0.1700E+03  0.1700E+03
     -4.871  0.0000E+00  0.0000E+00  0.1720E+03  0.1720E+03
     -4.688  0.0000E+00  0.0000E+00  0.1720E+03  0.1720E+03
     -4.505  0.0000E+00  0.0000E+00  0.1720E+03  0.1720E+03
     -4.323  0.9116E+01  0.9116E+01  0.1737E+03  0.1737E+03
     -4.140  0.1132E+02  0.1132E+02  0.1761E+03  0.1761E+03
     -3.958  0.1094E+02  0.1094E+02  0.1800E+03  0.1800E+03
     -3.775  0.0000E+00  0.0000E+00  0.1820E+03  0.1820E+03
     -3.593  0.0000E+00  0.0000E+00  0.1820E+03  0.1820E+03
     -3.410  0.0000E+00  0.0000E+00  0.1840E+03  0.1840E+03
     -3.228  0.1096E+02  0.1096E+02  0.1860E+03  0.1860E+03
     -3.045  0.1096E+02  0.1096E+02  0.1880E+03  0.1880E+03
     -2.862  0.0000E+00  0.0000E+00  0.1880E+03  0.1880E+03
     -2.680  0.1096E+02  0.1096E+02  0.1920E+03  0.1920E+03
     -2.497  0.0000E+00  0.0000E+00  0.1920E+03  0.1920E+03
     -2.315  0.0000E+00  0.0000E+00  0.1920E+03  0.1920E+03
     -2.132  0.2467E-01  0.2467E-01  0.1920E+03  0.1920E+03
     -1.950  0.0000E+00  0.0000E+00  0.1940E+03  0.1940E+03
     -1.767  0.0000E+00  0.0000E+00  0.1940E+03  0.1940E+03
     -1.585  0.5430E-07  0.5429E-07  0.1960E+03  0.1960E+03
     -1.402  0.0000E+00  0.0000E+00  0.2000E+03  0.2000E+03
     -1.219  0.1102E+02  0.1102E+02  0.2020E+03  0.2020E+03
     -1.037  0.1103E+02  0.1103E+02  0.2060E+03  0.2060E+03
     -0.854  0.9811E+01  0.9810E+01  0.2098E+03  0.2098E+03
     -0.672  0.1663E+01  0.1663E+01  0.2123E+03  0.2123E+03
     -0.489  0.2191E+02  0.2191E+02  0.2200E+03  0.2200E+03
     -0.307  0.1096E+02  0.1096E+02  0.2240E+03  0.2240E+03
     -0.124  0.8935E+01  0.8934E+01  0.2276E+03  0.2276E+03
      0.058  0.1819E+02  0.1819E+02  0.2333E+03  0.2333E+03
      0.241  0.1109E+02  0.1109E+02  0.2380E+03  0.2380E+03
      0.423  0.2189E+02  0.2189E+02  0.2460E+03  0.2460E+03
      0.606  0.1096E+02  0.1096E+02  0.2500E+03  0.2500E+03
      0.789  0.0000E+00  0.0000E+00  0.2560E+03  0.2560E+03
      0.971  0.0000E+00  0.0000E+00  0.2560E+03  0.2560E+03
      1.154  0.0000E+00  0.0000E+00  0.2560E+03  0.2560E+03
      1.336  0.0000E+00  0.0000E+00  0.2560E+03  0.2560E+03
      1.519  0.0000E+00  0.0000E+00  0.2560E+03  0.2560E+03
      1.701  0.0000E+00  0.0000E+00  0.2560E+03  0.2560E+03
      1.884  0.0000E+00  0.0000E+00  0.2560E+03  0.2560E+03
      2.066  0.0000E+00  0.0000E+00  0.2560E+03  0.2560E+03
      2.249  0.0000E+00  0.0000E+00  0.2560E+03  0.2560E+03
      2.432  0.0000E+00  0.0000E+00  0.2560E+03  0.2560E+03
      2.614  0.0000E+00  0.0000E+00  0.2560E+03  0.2560E+03
      2.797  0.0000E+00  0.0000E+00  0.2560E+03  0.2560E+03
      2.979  0.0000E+00  0.0000E+00  0.2560E+03  0.2560E+03
      3.162  0.0000E+00  0.0000E+00  0.2560E+03  0.2560E+03
