   55   55    1    2
  0.1454545E+03  0.2000000E-08  0.2000000E-08  0.2000000E-08  0.5000000E-15
  1.000000000000000E-004
  CAR 
 c2_oh2_ruthenium_mol                    
    166      1    128
 
  0.0000000E+00  0.0000000E+00  0.0000000E+00  0.1000000E+01
    1      -49.114344    -49.114344
    2      -48.958264    -48.958264
    3      -48.714897    -48.714897
    4      -29.126397    -29.126397
    5      -27.591933    -27.591933
    6      -26.827782    -26.827782
    7      -26.596489    -26.596489
    8      -26.171459    -26.171459
    9      -26.130348    -26.130348
   10      -24.101455    -24.101455
   11      -23.031690    -23.031690
   12      -22.582475    -22.582475
   13      -22.430557    -22.430557
   14      -22.304842    -22.304842
   15      -22.206444    -22.206444
   16      -22.044565    -22.044565
   17      -21.508677    -21.508677
   18      -21.123095    -21.123095
   19      -20.789597    -20.789597
   20      -19.617289    -19.617289
   21      -19.352441    -19.352441
   22      -18.712199    -18.712199
   23      -18.447892    -18.447892
   24      -18.220968    -18.220968
   25      -17.996136    -17.996136
   26      -17.842154    -17.842154
   27      -17.641083    -17.641083
   28      -17.593088    -17.593088
   29      -17.297628    -17.297628
   30      -16.802441    -16.802441
   31      -16.649702    -16.649702
   32      -15.870171    -15.870171
   33      -15.732755    -15.732755
   34      -15.437022    -15.437022
   35      -15.283866    -15.283866
   36      -14.850817    -14.850817
   37      -14.756478    -14.756478
   38      -14.678478    -14.678478
   39      -14.450796    -14.450796
   40      -14.139911    -14.139911
   41      -14.060777    -14.060777
   42      -14.046803    -14.046803
   43      -13.956261    -13.956261
   44      -13.932512    -13.932512
   45      -13.786795    -13.786795
   46      -13.423417    -13.423416
   47      -13.383147    -13.383147
   48      -13.310801    -13.310801
   49      -13.269327    -13.269327
   50      -13.192739    -13.192739
   51      -12.999855    -12.999855
   52      -12.956332    -12.956332
   53      -12.743758    -12.743758
   54      -12.692790    -12.692790
   55      -12.475941    -12.475941
   56      -12.421908    -12.421908
   57      -12.311677    -12.311677
   58      -12.251058    -12.251058
   59      -12.150150    -12.150150
   60      -12.035827    -12.035827
   61      -11.651313    -11.651313
   62      -11.417288    -11.417288
   63      -11.274397    -11.274397
   64      -11.170297    -11.170297
   65      -11.116121    -11.116121
   66      -11.080564    -11.080564
   67      -10.814387    -10.814387
   68      -10.751135    -10.751135
   69      -10.579725    -10.579725
   70      -10.429466    -10.429466
   71      -10.037354    -10.037354
   72       -9.958407     -9.958407
   73       -9.837797     -9.837797
   74       -9.756369     -9.756369
   75       -9.720844     -9.720844
   76       -9.631934     -9.631934
   77       -9.427638     -9.427638
   78       -9.045288     -9.045288
   79       -8.744641     -8.744642
   80       -8.390564     -8.390564
   81       -7.435353     -7.435354
   82       -7.272889     -7.272889
   83       -7.134131     -7.134131
   84       -5.620867     -5.620867
   85       -5.270916     -5.270916
   86       -5.011580     -5.011580
   87       -4.329653     -4.329653
   88       -4.168433     -4.168433
   89       -4.127328     -4.127328
   90       -3.978268     -3.978267
   91       -3.916154     -3.916154
   92       -3.510164     -3.510164
   93       -3.255687     -3.255687
   94       -3.087855     -3.087855
   95       -2.791390     -2.791390
   96       -2.733981     -2.733982
   97       -2.112143     -2.112144
   98       -1.688989     -1.688989
   99       -1.544042     -1.544042
  100       -1.484677     -1.484677
  101       -1.266122     -1.266122
  102       -1.201777     -1.201776
  103       -1.112891     -1.112891
  104       -1.019465     -1.019464
  105       -0.863251     -0.863250
  106       -0.787007     -0.787006
  107       -0.664540     -0.664540
  108       -0.644127     -0.644127
  109       -0.542815     -0.542814
  110       -0.522592     -0.522591
  111       -0.462209     -0.462208
  112       -0.351361     -0.351359
  113       -0.204839     -0.204838
  114       -0.130516     -0.130514
  115       -0.050930     -0.050929
  116        0.018099      0.018099
  117        0.055462      0.055464
  118        0.139665      0.139666
  119        0.222121      0.222121
  120        0.256023      0.256025
  121        0.317015      0.317017
  122        0.367357      0.367358
  123        0.403501      0.403502
  124        0.448996      0.448998
  125        0.561388      0.561392
  126        0.634458      0.634481
  127        0.648040      0.647991
  128        0.672426      0.672395
