       N       E                     dE             d eps       ncg     rms          rms(c)
DAV:   1     0.909113696088E+03    0.90911E+03   -0.58813E+04   768   0.974E+02
DAV:   2    -0.686609863661E+02   -0.97777E+03   -0.97122E+03  1024   0.160E+02
DAV:   3    -0.391862791705E+03   -0.32320E+03   -0.32261E+03   768   0.850E+01
DAV:   4    -0.412198714836E+03   -0.20336E+02   -0.20304E+02   704   0.281E+01
DAV:   5    -0.412484324739E+03   -0.28561E+00   -0.28547E+00   896   0.360E+00    0.577E+01
DAV:   6    -0.394321654731E+03    0.18163E+02   -0.39647E+02   512   0.241E+01    0.394E+01
DAV:   7    -0.383305390226E+03    0.11016E+02   -0.24258E+01   768   0.217E+01    0.240E+01
DAV:   8    -0.378903632400E+03    0.44018E+01   -0.17552E+01   768   0.105E+01    0.995E+00
DAV:   9    -0.377652815190E+03    0.12508E+01   -0.44773E+00   768   0.468E+00    0.369E+00
DAV:  10    -0.377596712867E+03    0.56102E-01   -0.50079E-01   768   0.166E+00    0.256E+00
DAV:  11    -0.377460543770E+03    0.13617E+00   -0.14915E-01   768   0.955E-01    0.104E+00
DAV:  12    -0.377389457223E+03    0.71087E-01   -0.68638E-02   768   0.653E-01    0.635E-01
DAV:  13    -0.377370857500E+03    0.18600E-01   -0.17604E-02   768   0.357E-01    0.471E-01
DAV:  14    -0.377359131893E+03    0.11726E-01   -0.15346E-02   768   0.323E-01    0.285E-01
DAV:  15    -0.377360782357E+03   -0.16505E-02   -0.54878E-03   768   0.214E-01    0.214E-01
DAV:  16    -0.377370425291E+03   -0.96429E-02   -0.21790E-03   768   0.143E-01    0.106E-01
DAV:  17    -0.377377581094E+03   -0.71558E-02   -0.12749E-03   768   0.105E-01    0.781E-02
DAV:  18    -0.377382043485E+03   -0.44624E-02   -0.35829E-04   768   0.587E-02    0.557E-02
DAV:  19    -0.377385313880E+03   -0.32704E-02   -0.21310E-04   768   0.423E-02    0.307E-02
DAV:  20    -0.377387067353E+03   -0.17535E-02   -0.68359E-05   768   0.246E-02    0.207E-02
DAV:  21    -0.377388610389E+03   -0.15430E-02   -0.39865E-05   768   0.182E-02    0.129E-02
DAV:  22    -0.377389663129E+03   -0.10527E-02   -0.38939E-05   768   0.138E-02    0.856E-03
DAV:  23    -0.377390047461E+03   -0.38433E-03   -0.52526E-06   640   0.576E-03    0.571E-03
DAV:  24    -0.377390418563E+03   -0.37110E-03   -0.90563E-06   640   0.604E-03    0.256E-03
DAV:  25    -0.377390513165E+03   -0.94603E-04   -0.12979E-06   640   0.246E-03    0.196E-03
DAV:  26    -0.377390655082E+03   -0.14192E-03   -0.26372E-06   640   0.291E-03    0.124E-03
DAV:  27    -0.377390711716E+03   -0.56633E-04   -0.93607E-07   640   0.174E-03    0.794E-04
DAV:  28    -0.377390738901E+03   -0.27186E-04   -0.24026E-07   640   0.102E-03    0.510E-04
DAV:  29    -0.377390751622E+03   -0.12721E-04   -0.11178E-08   640   0.618E-04    0.349E-04
DAV:  30    -0.377390762947E+03   -0.11324E-04   -0.12550E-08   640   0.603E-04    0.187E-04
DAV:  31    -0.377390767639E+03   -0.46927E-05    0.61779E-08   640   0.403E-04
   1 F= -.37739077E+03 E0= -.37739077E+03  d E =-.409562E-63  mag=     0.0000
