<?xml version="1.0" encoding="ISO-8859-1"?>
<modeling>
 <generator>
  <i name="program" type="string">vasp </i>
  <i name="version" type="string">5.3.5  </i>
  <i name="subversion" type="string">31Mar14 (build Apr 08 2014 12:00:03) complex                          parallel </i>
  <i name="platform" type="string">NSC-NSCPATCH-BUILD02 </i>
  <i name="date" type="string">2017 03 15 </i>
  <i name="time" type="string">18:59:23 </i>
 </generator>
 <incar>
  <i type="string" name="SYSTEM"> c2_oh2_ruthenium_mol</i>
  <i type="int" name="ISTART">     0</i>
  <i type="string" name="PREC">accurate</i>
  <i type="int" name="IALGO">    38</i>
  <i type="logical" name="ADDGRID"> T  </i>
  <i type="int" name="ISPIN">     2</i>
  <i name="BMIX">      2.00000000</i>
  <i type="int" name="ICHARG">     2</i>
  <i name="EDIFF">      0.00001000</i>
  <i name="EDIFFG">     -0.01000000</i>
  <i name="ENCUT">    700.00000000</i>
  <i name="POTIM">      0.50000000</i>
  <i name="NUPDOWN">      0.00000000</i>
  <i name="NELECT">    166.00000000</i>
  <i type="string" name="LREAL"> Auto</i>
  <i name="TIME">      0.05000000</i>
  <i type="int" name="ISMEAR">     0</i>
  <i name="SIGMA">      0.01000000</i>
  <i type="int" name="ICORELEVEL">     2</i>
  <i type="int" name="CLNT">     1</i>
  <i type="int" name="CLN">     1</i>
  <i type="int" name="INCAR     ">     0</i>
  <i name="CLZ">      0.50000000</i>
 </incar>
 <kpoints>
  <generation param="Monkhorst-Pack">
   <v type="int" name="divisions">       1        1        1 </v>
   <v name="usershift">      0.00000000       0.00000000       0.00000000 </v>
   <v name="genvec1">      1.00000000       0.00000000       0.00000000 </v>
   <v name="genvec2">      0.00000000       1.00000000       0.00000000 </v>
   <v name="genvec3">      0.00000000       0.00000000       1.00000000 </v>
   <v name="shift">      0.00000000       0.00000000       0.00000000 </v>
  </generation>
  <varray name="kpointlist" >
   <v>       0.00000000       0.00000000       0.00000000 </v>
  </varray>
  <varray name="weights" >
   <v>       1.00000000 </v>
  </varray>
 </kpoints>
 <parameters>
  <separator name="general" >
   <i type="string" name="SYSTEM">c2_oh2_ruthenium_mol</i>
   <i type="logical" name="LCOMPAT"> F  </i>
  </separator>
  <separator name="electronic" >
   <i type="string" name="PREC">accura</i>
   <i name="ENMAX">    700.00000000</i>
   <i name="ENAUG">    946.76800000</i>
   <i name="EDIFF">      0.00001000</i>
   <i type="int" name="IALGO">    38</i>
   <i type="int" name="IWAVPR">    10</i>
   <i type="int" name="NBANDS">   128</i>
   <i name="NELECT">    166.00000000</i>
   <i type="int" name="TURBO">     0</i>
   <i type="int" name="IRESTART">     0</i>
   <i type="int" name="NREBOOT">     0</i>
   <i type="int" name="NMIN">     0</i>
   <i name="EREF">      0.00000000</i>
   <separator name="electronic smearing" >
    <i type="int" name="ISMEAR">     0</i>
    <i name="SIGMA">      0.01000000</i>
    <i name="KSPACING">      0.50000000</i>
    <i type="logical" name="KGAMMA"> T  </i>
   </separator>
   <separator name="electronic projectors" >
    <i type="logical" name="LREAL"> T  </i>
    <v name="ROPT">     -0.00025000     -0.00025000     -0.00025000     -0.00025000     -0.00025000     -0.00025000</v>
    <i type="int" name="LMAXPAW">  -100</i>
    <i type="int" name="LMAXMIX">     2</i>
    <i type="logical" name="NLSPLINE"> F  </i>
   </separator>
   <separator name="electronic startup" >
    <i type="int" name="ISTART">     0</i>
    <i type="int" name="ICHARG">     2</i>
    <i type="int" name="INIWAV">     1</i>
   </separator>
   <separator name="electronic spin" >
    <i type="int" name="ISPIN">     2</i>
    <i type="logical" name="LNONCOLLINEAR"> F  </i>
    <v name="MAGMOM">      0.00000000      0.00000000      0.00000000      0.00000000      0.00000000      0.00000000      0.00000000      0.00000000      0.00000000      0.00000000      0.00000000      0.00000000      0.00000000      0.00000000      0.00000000      0.00000000      0.00000000      0.00000000      0.00000000      0.00000000
      0.00000000      0.00000000      0.00000000      0.00000000      0.00000000      0.00000000      0.00000000      0.00000000      0.00000000      0.00000000      0.00000000      0.00000000      0.00000000      0.00000000      0.00000000      0.00000000      0.00000000      0.00000000      0.00000000      0.00000000
      0.00000000      0.00000000      0.00000000      0.00000000      0.00000000      0.00000000      0.00000000      0.00000000      0.00000000      0.00000000      0.00000000      0.00000000      0.00000000      0.00000000      0.00000000</v>
    <i name="NUPDOWN">      0.00000000</i>
    <i type="logical" name="LSORBIT"> F  </i>
    <v name="SAXIS">      0.00000000      0.00000000      1.00000000</v>
    <i type="logical" name="LSPIRAL"> F  </i>
    <v name="QSPIRAL">      0.00000000      0.00000000      0.00000000</v>
    <i type="logical" name="LZEROZ"> F  </i>
   </separator>
   <separator name="electronic exchange-correlation" >
    <i type="logical" name="LASPH"> F  </i>
    <i type="logical" name="LMETAGGA"> F  </i>
   </separator>
   <separator name="electronic convergence" >
    <i type="int" name="NELM">    60</i>
    <i type="int" name="NELMDL">    -5</i>
    <i type="int" name="NELMIN">     2</i>
    <i name="ENINI">    700.00000000</i>
    <separator name="electronic convergence detail" >
     <i type="logical" name="LDIAG"> T  </i>
     <i type="logical" name="LSUBROT"> F  </i>
     <i name="WEIMIN">      0.00000000</i>
     <i name="EBREAK">      0.00000002</i>
     <i name="DEPER">      0.30000000</i>
     <i type="int" name="NRMM">     4</i>
     <i name="TIME">      0.05000000</i>
    </separator>
   </separator>
   <separator name="electronic mixer" >
    <i name="AMIX">      0.40000000</i>
    <i name="BMIX">      2.00000000</i>
    <i name="AMIN">      0.10000000</i>
    <i name="AMIX_MAG">      1.60000000</i>
    <i name="BMIX_MAG">      2.00000000</i>
    <separator name="electronic mixer details" >
     <i type="int" name="IMIX">     4</i>
     <i type="int" name="MAXMIX">   -45</i>
     <i name="WC">    100.00000000</i>
     <i type="int" name="INIMIX">     1</i>
     <i type="int" name="MIXPRE">     1</i>
     <i type="int" name="MREMOVE">     5</i>
    </separator>
   </separator>
   <separator name="electronic dipolcorrection" >
    <i type="logical" name="LDIPOL"> F  </i>
    <i type="logical" name="LMONO"> F  </i>
    <i type="int" name="IDIPOL">     0</i>
    <i name="EPSILON">      1.00000000</i>
    <v name="DIPOL">   -100.00000000   -100.00000000   -100.00000000</v>
    <i name="EFIELD">      0.00000000</i>
   </separator>
  </separator>
  <separator name="grids" >
   <i type="int" name="NGX">   180</i>
   <i type="int" name="NGY">   180</i>
   <i type="int" name="NGZ">   180</i>
   <i type="int" name="NGXF">   360</i>
   <i type="int" name="NGYF">   360</i>
   <i type="int" name="NGZF">   360</i>
   <i type="logical" name="ADDGRID"> T  </i>
  </separator>
  <separator name="ionic" >
   <i type="int" name="NSW">     0</i>
   <i type="int" name="IBRION">    -1</i>
   <i type="int" name="ISIF">     2</i>
   <i name="PSTRESS">      0.00000000</i>
   <i name="EDIFFG">     -0.01000000</i>
   <i type="int" name="NFREE">     0</i>
   <i name="POTIM">      0.50000000</i>
   <i name="SMASS">     -3.00000000</i>
   <i name="SCALEE">      1.00000000</i>
  </separator>
  <separator name="ionic md" >
   <i name="TEBEG">      0.00010000</i>
   <i name="TEEND">      0.00010000</i>
   <i type="int" name="NBLOCK">     1</i>
   <i type="int" name="KBLOCK">     1</i>
   <i type="int" name="NPACO">   256</i>
   <i name="APACO">     16.00000000</i>
  </separator>
  <separator name="symmetry" >
   <i type="int" name="ISYM">     2</i>
   <i name="SYMPREC">      0.00001000</i>
  </separator>
  <separator name="dos" >
   <i type="logical" name="LORBIT"> F  </i>
   <v name="RWIGS">     -1.00000000     -1.00000000     -1.00000000     -1.00000000     -1.00000000     -1.00000000</v>
   <i type="int" name="NEDOS">   301</i>
   <i name="EMIN">     10.00000000</i>
   <i name="EMAX">    -10.00000000</i>
   <i name="EFERMI">      0.00000000</i>
  </separator>
  <separator name="writing" >
   <i type="int" name="NWRITE">     2</i>
   <i type="logical" name="LWAVE"> T  </i>
   <i type="logical" name="LCHARG"> T  </i>
   <i type="logical" name="LPARD"> F  </i>
   <i type="logical" name="LVTOT"> F  </i>
   <i type="logical" name="LVHAR"> F  </i>
   <i type="logical" name="LELF"> F  </i>
   <i type="logical" name="LOPTICS"> F  </i>
   <v name="STM">      0.00000000      0.00000000      0.00000000      0.00000000      0.00000000      0.00000000      0.00000000</v>
  </separator>
  <separator name="performance" >
   <i type="int" name="NPAR">    64</i>
   <i type="int" name="NSIM">     4</i>
   <i type="int" name="NBLK">    -1</i>
   <i type="logical" name="LPLANE"> T  </i>
   <i type="logical" name="LSCALAPACK"> T  </i>
   <i type="logical" name="LSCAAWARE"> F  </i>
   <i type="logical" name="LSCALU"> F  </i>
   <i type="logical" name="LASYNC"> F  </i>
   <i type="logical" name="LORBITALREAL"> F  </i>
  </separator>
  <separator name="miscellaneous" >
   <i type="int" name="IDIOT">     3</i>
   <i type="logical" name="LMUSIC"> F  </i>
   <v name="POMASS">     12.01100000     12.01100000      1.00000000     14.00100000     16.00000000    101.07000000</v>
   <v name="DARWINR">      0.00000000      0.00000000      0.00000000      0.00000000      0.00000000      0.00000000</v>
   <v name="DARWINV">      1.00000000      1.00000000      1.00000000      1.00000000      1.00000000      1.00000000</v>
   <i type="logical" name="LCORR"> T  </i>
  </separator>
  <i type="logical" name="GGA_COMPAT"> T  </i>
  <i type="logical" name="LBERRY"> F  </i>
  <i type="int" name="ICORELEVEL">     2</i>
  <i type="int" name="CLNT">     1</i>
  <i type="int" name="CLN">     1</i>
  <i type="int" name="CLL">     0</i>
  <i name="CLZ">      0.50000000</i>
  <i type="logical" name="LDAU"> F  </i>
  <i type="int" name="I_CONSTRAINED_M">     0</i>
  <separator name="electronic exchange-correlation" >
   <i type="string" name="GGA">--</i>
   <i type="int" name="VOSKOWN">     0</i>
   <i type="logical" name="LHFCALC"> F  </i>
   <i type="string" name="PRECFOCK"></i>
   <i type="logical" name="LSYMGRAD"> F  </i>
   <i type="logical" name="LHFONE"> F  </i>
   <i type="logical" name="LRHFCALC"> F  </i>
   <i type="logical" name="LTHOMAS"> F  </i>
   <i type="logical" name="LMODELHF"> F  </i>
   <i name="ENCUT4O">     -1.00000000</i>
   <i type="int" name="EXXOEP">     0</i>
   <i type="int" name="FOURORBIT">     0</i>
   <i name="AEXX">      0.00000000</i>
   <i name="HFALPHA">      0.00000000</i>
   <i name="MCALPHA">      0.00000000</i>
   <i name="ALDAX">      1.00000000</i>
   <i name="AGGAX">      1.00000000</i>
   <i name="ALDAC">      1.00000000</i>
   <i name="AGGAC">      1.00000000</i>
   <i type="int" name="NKREDX">     1</i>
   <i type="int" name="NKREDY">     1</i>
   <i type="int" name="NKREDZ">     1</i>
   <i type="logical" name="SHIFTRED"> F  </i>
   <i type="logical" name="ODDONLY"> F  </i>
   <i type="logical" name="EVENONLY"> F  </i>
   <i type="int" name="LMAXFOCK">     0</i>
   <i type="int" name="NMAXFOCKAE">     0</i>
   <i type="logical" name="LFOCKAEDFT"> F  </i>
   <i name="HFSCREEN">      0.00000000</i>
   <i name="HFSCREENC">      0.00000000</i>
   <i type="int" name="NBANDSGWLOW">     0</i>
  </separator>
  <separator name="vdW DFT" >
   <i type="logical" name="LUSE_VDW"> F  </i>
   <i name="Zab_VDW">     -0.84910000</i>
   <i name="PARAM1">      0.12340000</i>
   <i name="PARAM2">      1.00000000</i>
   <i name="PARAM3">      0.00000000</i>
  </separator>
  <separator name="model GW" >
   <i type="int" name="MODEL_GW">     0</i>
   <i name="MODEL_EPS0">     87.27272727</i>
   <i name="MODEL_ALPHA">      1.00000000</i>
  </separator>
  <separator name="linear response parameters" >
   <i type="logical" name="LEPSILON"> F  </i>
   <i type="logical" name="LRPA"> F  </i>
   <i type="logical" name="LNABLA"> F  </i>
   <i type="logical" name="LVEL"> F  </i>
   <i type="int" name="KINTER">     0</i>
   <i name="CSHIFT">      0.10000000</i>
   <i name="OMEGAMAX">     -1.00000000</i>
   <i name="DEG_THRESHOLD">      0.00200000</i>
  </separator>
  <separator name="orbital magnetization" >
   <i type="logical" name="NUCIND"> F  </i>
   <v name="MAGPOS">      0.00000000      0.00000000      0.00000000</v>
   <i type="logical" name="LNICSALL"> T  </i>
   <i type="logical" name="ORBITALMAG"> F  </i>
   <i type="logical" name="LMAGBLOCH"> F  </i>
   <i type="logical" name="LCHIMAG"> F  </i>
   <i type="logical" name="LGAUGE"> T  </i>
   <i type="int" name="MAGATOM">     0</i>
   <v name="MAGDIPOL">      0.00000000      0.00000000      0.00000000</v>
   <v name="AVECCONST">      0.00000000      0.00000000      0.00000000</v>
  </separator>
  <separator name="response functions" >
   <i type="logical" name="LADDER"> F  </i>
   <i type="logical" name="LFXC"> F  </i>
   <i type="logical" name="LHARTREE"> T  </i>
   <i type="int" name="IBSE">     0</i>
   <i type="logical" name="LTCTE"> F  </i>
   <i type="logical" name="LTETE"> F  </i>
   <i type="logical" name="LTRIPLET"> F  </i>
   <i type="logical" name="LFXCEPS"> F  </i>
   <i type="logical" name="LFXHEG"> F  </i>
   <i type="logical" name="L2ORDER"> F  </i>
   <i type="logical" name="LUSEW"> F  </i>
   <i name="ENCUTGW">     -2.00000000</i>
   <i name="ENCUTGWSOFT">     -2.00000000</i>
   <i name="ENCUTLF">     -1.00000000</i>
   <i type="int" name="LMAXMP2">    -1</i>
   <i name="SCISSOR">      0.00000000</i>
   <i type="int" name="NOMEGA">     0</i>
   <i type="int" name="NOMEGAR">     0</i>
   <i type="int" name="NBANDSGW">    -1</i>
   <i type="int" name="NBANDSO">    -1</i>
   <i type="int" name="NBANDSV">    -1</i>
   <i type="int" name="NELM">     1</i>
   <i type="int" name="DIM">     3</i>
   <i type="int" name="ANTIRES">     0</i>
   <i name="OMEGAMAX">    -30.00000000</i>
   <i name="OMEGAMIN">    -30.00000000</i>
   <i name="OMEGATL">   -200.00000000</i>
   <i type="int" name="OMEGAGRID">     0</i>
   <i name="CSHIFT">     -0.10000000</i>
   <i type="logical" name="SELFENERGY"> F  </i>
   <i type="logical" name="LSPECTRAL"> F  </i>
   <i type="logical" name="ODDONLYGW"> F  </i>
   <i type="logical" name="EVENONLYGW"> F  </i>
   <i type="int" name="NKREDLFX">     1</i>
   <i type="int" name="NKREDLFY">     1</i>
   <i type="int" name="NKREDLFZ">     1</i>
   <i type="int" name="MAXMEM">  1800</i>
   <i type="int" name="TELESCOPE">     0</i>
   <i type="int" name="TAUPAR">     1</i>
  </separator>
  <separator name="External order field" >
   <i name="OFIELD_KAPPA">      0.00000000</i>
   <v name="OFIELD_K">      0.00000000      0.00000000      0.00000000</v>
   <i name="OFIELD_Q6_NEAR">      0.00000000</i>
   <i name="OFIELD_Q6_FAR">      0.00000000</i>
   <i name="OFIELD_A">      0.00000000</i>
  </separator>
 </parameters>
 <atominfo>
  <atoms>      55 </atoms>
  <types>       6 </types>
  <array name="atoms" >
   <dimension dim="1">ion</dimension>
   <field type="string">element</field>
   <field type="int">atomtype</field>
   <set>
    <rc><c>C </c><c>   1</c></rc>
    <rc><c>C </c><c>   2</c></rc>
    <rc><c>C </c><c>   2</c></rc>
    <rc><c>C </c><c>   2</c></rc>
    <rc><c>C </c><c>   2</c></rc>
    <rc><c>C </c><c>   2</c></rc>
    <rc><c>C </c><c>   2</c></rc>
    <rc><c>C </c><c>   2</c></rc>
    <rc><c>C </c><c>   2</c></rc>
    <rc><c>C </c><c>   2</c></rc>
    <rc><c>C </c><c>   2</c></rc>
    <rc><c>C </c><c>   2</c></rc>
    <rc><c>C </c><c>   2</c></rc>
    <rc><c>C </c><c>   2</c></rc>
    <rc><c>C </c><c>   2</c></rc>
    <rc><c>C </c><c>   2</c></rc>
    <rc><c>C </c><c>   2</c></rc>
    <rc><c>C </c><c>   2</c></rc>
    <rc><c>C </c><c>   2</c></rc>
    <rc><c>C </c><c>   2</c></rc>
    <rc><c>C </c><c>   2</c></rc>
    <rc><c>C </c><c>   2</c></rc>
    <rc><c>C </c><c>   2</c></rc>
    <rc><c>C </c><c>   2</c></rc>
    <rc><c>C </c><c>   2</c></rc>
    <rc><c>H </c><c>   3</c></rc>
    <rc><c>H </c><c>   3</c></rc>
    <rc><c>H </c><c>   3</c></rc>
    <rc><c>H </c><c>   3</c></rc>
    <rc><c>H </c><c>   3</c></rc>
    <rc><c>H </c><c>   3</c></rc>
    <rc><c>H </c><c>   3</c></rc>
    <rc><c>H </c><c>   3</c></rc>
    <rc><c>H </c><c>   3</c></rc>
    <rc><c>H </c><c>   3</c></rc>
    <rc><c>H </c><c>   3</c></rc>
    <rc><c>H </c><c>   3</c></rc>
    <rc><c>H </c><c>   3</c></rc>
    <rc><c>H </c><c>   3</c></rc>
    <rc><c>H </c><c>   3</c></rc>
    <rc><c>H </c><c>   3</c></rc>
    <rc><c>H </c><c>   3</c></rc>
    <rc><c>H </c><c>   3</c></rc>
    <rc><c>H </c><c>   3</c></rc>
    <rc><c>H </c><c>   3</c></rc>
    <rc><c>H </c><c>   3</c></rc>
    <rc><c>H </c><c>   3</c></rc>
    <rc><c>H </c><c>   3</c></rc>
    <rc><c>N </c><c>   4</c></rc>
    <rc><c>N </c><c>   4</c></rc>
    <rc><c>N </c><c>   4</c></rc>
    <rc><c>N </c><c>   4</c></rc>
    <rc><c>N </c><c>   4</c></rc>
    <rc><c>O </c><c>   5</c></rc>
    <rc><c>Ru</c><c>   6</c></rc>
   </set>
  </array>
  <array name="atomtypes" >
   <dimension dim="1">type</dimension>
   <field type="int">atomspertype</field>
   <field type="string">element</field>
   <field>mass</field>
   <field>valence</field>
   <field type="string">pseudopotential</field>
   <set>
    <rc><c>   1</c><c>C </c><c>     12.01100000</c><c>      4.50000000</c><c>  PAW_PBE C_h 06Feb2004                 </c></rc>
    <rc><c>  24</c><c>C </c><c>     12.01100000</c><c>      4.00000000</c><c>  PAW_PBE C_h 06Feb2004                 </c></rc>
    <rc><c>  23</c><c>H </c><c>      1.00000000</c><c>      1.00000000</c><c>  PAW_PBE H 15Jun2001                   </c></rc>
    <rc><c>   5</c><c>N </c><c>     14.00100000</c><c>      5.00000000</c><c>  PAW_PBE N_h 06Feb2004                 </c></rc>
    <rc><c>   1</c><c>O </c><c>     16.00000000</c><c>      6.00000000</c><c>  PAW_PBE O_h 06Feb2004                 </c></rc>
    <rc><c>   1</c><c>Ru</c><c>    101.07000000</c><c>     14.00000000</c><c>  PAW_PBE Ru_pv 28Jan2005               </c></rc>
   </set>
  </array>
 </atominfo>
 <structure name="initialpos" >
  <crystal>
   <varray name="basis" >
    <v>      20.00000000       0.00000000       0.00000000 </v>
    <v>       0.00000000      20.00000000       0.00000000 </v>
    <v>       0.00000000       0.00000000      20.00000000 </v>
   </varray>
   <i name="volume">   8000.00000000 </i>
   <varray name="rec_basis" >
    <v>       0.05000000       0.00000000       0.00000000 </v>
    <v>       0.00000000       0.05000000       0.00000000 </v>
    <v>       0.00000000       0.00000000       0.05000000 </v>
   </varray>
  </crystal>
  <varray name="positions" >
   <v>       0.36904589       0.57756069       0.65398228 </v>
   <v>       0.43793752       0.56561110       0.32757008 </v>
   <v>       0.45581208       0.52423376       0.38051465 </v>
   <v>       0.47372925       0.61530131       0.44986522 </v>
   <v>       0.45595175       0.65963312       0.39935201 </v>
   <v>       0.43785737       0.63472201       0.33675972 </v>
   <v>       0.52307882       0.32955005       0.67474498 </v>
   <v>       0.49710163       0.37190466       0.62618823 </v>
   <v>       0.60227374       0.41933300       0.60593616 </v>
   <v>       0.63096398       0.37761922       0.65422416 </v>
   <v>       0.73964927       0.52855915       0.53463181 </v>
   <v>       0.70082162       0.56612858       0.49044049 </v>
   <v>       0.63257913       0.55363620       0.48652424 </v>
   <v>       0.63952130       0.46927713       0.56732841 </v>
   <v>       0.70843899       0.47974495       0.57314689 </v>
   <v>       0.59134754       0.33224398       0.68903016 </v>
   <v>       0.36211554       0.48866484       0.56417415 </v>
   <v>       0.40790931       0.62211625       0.69058213 </v>
   <v>       0.47619960       0.62606623       0.67660612 </v>
   <v>       0.50295190       0.58590820       0.62668073 </v>
   <v>       0.39825425       0.53800137       0.60426081 </v>
   <v>       0.29334713       0.47671938       0.56830116 </v>
   <v>       0.37289802       0.40579857       0.48223443 </v>
   <v>       0.30486503       0.39173492       0.48443166 </v>
   <v>       0.26422003       0.42785518       0.52821594 </v>
   <v>       0.48989745       0.29510618       0.70074864 </v>
   <v>       0.61334240       0.29968355       0.72673159 </v>
   <v>       0.68424189       0.38076917       0.66478776 </v>
   <v>       0.54225374       0.36233861       0.46129841 </v>
   <v>       0.31579090       0.57306911       0.66420366 </v>
   <v>       0.44416348       0.37118871       0.61364770 </v>
   <v>       0.42392665       0.66833230       0.29622671 </v>
   <v>       0.45642762       0.71313270       0.40950260 </v>
   <v>       0.48809132       0.63358802       0.49907234 </v>
   <v>       0.56912778       0.41808713       0.41480476 </v>
   <v>       0.73767440       0.44963919       0.60776512 </v>
   <v>       0.72277620       0.60481012       0.45904817 </v>
   <v>       0.45570253       0.47012894       0.37468790 </v>
   <v>       0.40614333       0.37888556       0.44852541 </v>
   <v>       0.28443799       0.35306162       0.45202062 </v>
   <v>       0.79326502       0.53703787       0.53892527 </v>
   <v>       0.55589708       0.58769132       0.61440612 </v>
   <v>       0.42412006       0.54328620       0.27986105 </v>
   <v>       0.50894741       0.65984570       0.70400156 </v>
   <v>       0.26265982       0.50568523       0.60265428 </v>
   <v>       0.21072272       0.41813760       0.53105039 </v>
   <v>       0.60090654       0.58197914       0.45254259 </v>
   <v>       0.38544357       0.65296704       0.72941133 </v>
   <v>       0.47424490       0.54794204       0.44140236 </v>
   <v>       0.40180479       0.45306079       0.52108436 </v>
   <v>       0.53520702       0.41608490       0.59173240 </v>
   <v>       0.46544808       0.54254992       0.59041194 </v>
   <v>       0.60138410       0.50650621       0.52397638 </v>
   <v>       0.53073984       0.40562607       0.44215451 </v>
   <v>       0.50088568       0.48087016       0.51934246 </v>
  </varray>
  <varray name="selective"  type="logical" >
   <v type="logical" >  T  T  T </v>
   <v type="logical" >  T  T  T </v>
   <v type="logical" >  T  T  T </v>
   <v type="logical" >  T  T  T </v>
   <v type="logical" >  T  T  T </v>
   <v type="logical" >  T  T  T </v>
   <v type="logical" >  T  T  T </v>
   <v type="logical" >  T  T  T </v>
   <v type="logical" >  T  T  T </v>
   <v type="logical" >  T  T  T </v>
   <v type="logical" >  T  T  T </v>
   <v type="logical" >  T  T  T </v>
   <v type="logical" >  T  T  T </v>
   <v type="logical" >  T  T  T </v>
   <v type="logical" >  T  T  T </v>
   <v type="logical" >  T  T  T </v>
   <v type="logical" >  T  T  T </v>
   <v type="logical" >  T  T  T </v>
   <v type="logical" >  T  T  T </v>
   <v type="logical" >  T  T  T </v>
   <v type="logical" >  T  T  T </v>
   <v type="logical" >  T  T  T </v>
   <v type="logical" >  T  T  T </v>
   <v type="logical" >  T  T  T </v>
   <v type="logical" >  T  T  T </v>
   <v type="logical" >  T  T  T </v>
   <v type="logical" >  T  T  T </v>
   <v type="logical" >  T  T  T </v>
   <v type="logical" >  T  T  T </v>
   <v type="logical" >  T  T  T </v>
   <v type="logical" >  T  T  T </v>
   <v type="logical" >  T  T  T </v>
   <v type="logical" >  T  T  T </v>
   <v type="logical" >  T  T  T </v>
   <v type="logical" >  T  T  T </v>
   <v type="logical" >  T  T  T </v>
   <v type="logical" >  T  T  T </v>
   <v type="logical" >  T  T  T </v>
   <v type="logical" >  T  T  T </v>
   <v type="logical" >  T  T  T </v>
   <v type="logical" >  T  T  T </v>
   <v type="logical" >  T  T  T </v>
   <v type="logical" >  T  T  T </v>
   <v type="logical" >  T  T  T </v>
   <v type="logical" >  T  T  T </v>
   <v type="logical" >  T  T  T </v>
   <v type="logical" >  T  T  T </v>
   <v type="logical" >  T  T  T </v>
   <v type="logical" >  T  T  T </v>
   <v type="logical" >  T  T  T </v>
   <v type="logical" >  T  T  T </v>
   <v type="logical" >  T  T  T </v>
   <v type="logical" >  T  T  T </v>
   <v type="logical" >  T  T  T </v>
   <v type="logical" >  T  T  T </v>
  </varray>
  <nose>
   <v>      -3.00000000       0.00000000       0.00010000       0.00010000 </v>
  </nose>
 </structure>
 <calculation>
  <scstep>
   <time name="dav">   14.10   15.03</time>
   <time name="total">   21.18   22.14</time>
   <energy>
    <i name="alphaZ">     12.91687988 </i>
    <i name="ewald">  23289.95385856 </i>
    <i name="hartreedc"> -28892.22855337 </i>
    <i name="XCdc">    400.93970676 </i>
    <i name="pawpsdc">   5890.45591622 </i>
    <i name="pawaedc">  -5710.10246236 </i>
    <i name="eentropy">     -0.00000076 </i>
    <i name="bandstr">  -1676.22156005 </i>
    <i name="atom">   7593.39991119 </i>
    <i name="e_fr_energy">    909.11369609 </i>
    <i name="e_wo_entrp">    909.11369685 </i>
    <i name="e_0_energy">    909.11369647 </i>
   </energy>
  </scstep>
  <scstep>
   <time name="dav">   18.34   19.43</time>
   <time name="total">   18.34   19.43</time>
   <energy>
    <i name="e_fr_energy">    -68.66098637 </i>
    <i name="e_wo_entrp">    -68.66098637 </i>
    <i name="e_0_energy">    -68.66098637 </i>
   </energy>
  </scstep>
  <scstep>
   <time name="dav">   14.28   15.16</time>
   <time name="total">   14.29   15.17</time>
   <energy>
    <i name="e_fr_energy">   -391.86279171 </i>
    <i name="e_wo_entrp">   -391.86279171 </i>
    <i name="e_0_energy">   -391.86279171 </i>
   </energy>
  </scstep>
  <scstep>
   <time name="dav">   13.12   13.99</time>
   <time name="total">   13.13   14.00</time>
   <energy>
    <i name="e_fr_energy">   -412.19871484 </i>
    <i name="e_wo_entrp">   -412.19871484 </i>
    <i name="e_0_energy">   -412.19871484 </i>
   </energy>
  </scstep>
  <scstep>
   <time name="dav">   16.07   17.04</time>
   <time name="total">   20.76   21.92</time>
   <energy>
    <i name="e_fr_energy">   -412.48432474 </i>
    <i name="e_wo_entrp">   -412.48432474 </i>
    <i name="e_0_energy">   -412.48432474 </i>
   </energy>
  </scstep>
  <scstep>
   <time name="dav">   10.15   10.80</time>
   <time name="total">   21.89   22.57</time>
   <energy>
    <i name="e_fr_energy">   -394.32165473 </i>
    <i name="e_wo_entrp">   -394.32165473 </i>
    <i name="e_0_energy">   -394.32165473 </i>
   </energy>
  </scstep>
  <scstep>
   <time name="dav">   14.34   15.62</time>
   <time name="total">   25.99   27.30</time>
   <energy>
    <i name="e_fr_energy">   -383.30539023 </i>
    <i name="e_wo_entrp">   -383.30539023 </i>
    <i name="e_0_energy">   -383.30539023 </i>
   </energy>
  </scstep>
  <scstep>
   <time name="dav">   14.34   15.60</time>
   <time name="total">   26.09   27.39</time>
   <energy>
    <i name="e_fr_energy">   -378.90363240 </i>
    <i name="e_wo_entrp">   -378.90363240 </i>
    <i name="e_0_energy">   -378.90363240 </i>
   </energy>
  </scstep>
  <scstep>
   <time name="dav">   14.36   15.69</time>
   <time name="total">   26.08   27.47</time>
   <energy>
    <i name="e_fr_energy">   -377.65281519 </i>
    <i name="e_wo_entrp">   -377.65281519 </i>
    <i name="e_0_energy">   -377.65281519 </i>
   </energy>
  </scstep>
  <scstep>
   <time name="dav">   14.53   15.79</time>
   <time name="total">   26.12   27.41</time>
   <energy>
    <i name="e_fr_energy">   -377.59671287 </i>
    <i name="e_wo_entrp">   -377.59671287 </i>
    <i name="e_0_energy">   -377.59671287 </i>
   </energy>
  </scstep>
  <scstep>
   <time name="dav">   14.34   15.57</time>
   <time name="total">   26.02   27.28</time>
   <energy>
    <i name="e_fr_energy">   -377.46054377 </i>
    <i name="e_wo_entrp">   -377.46054377 </i>
    <i name="e_0_energy">   -377.46054377 </i>
   </energy>
  </scstep>
  <scstep>
   <time name="dav">   14.46   15.71</time>
   <time name="total">   26.12   27.41</time>
   <energy>
    <i name="e_fr_energy">   -377.38945722 </i>
    <i name="e_wo_entrp">   -377.38945722 </i>
    <i name="e_0_energy">   -377.38945722 </i>
   </energy>
  </scstep>
  <scstep>
   <time name="dav">   14.50   15.73</time>
   <time name="total">   26.16   27.41</time>
   <energy>
    <i name="e_fr_energy">   -377.37085750 </i>
    <i name="e_wo_entrp">   -377.37085750 </i>
    <i name="e_0_energy">   -377.37085750 </i>
   </energy>
  </scstep>
  <scstep>
   <time name="dav">   14.55   15.81</time>
   <time name="total">   26.15   27.45</time>
   <energy>
    <i name="e_fr_energy">   -377.35913189 </i>
    <i name="e_wo_entrp">   -377.35913189 </i>
    <i name="e_0_energy">   -377.35913189 </i>
   </energy>
  </scstep>
  <scstep>
   <time name="dav">   14.43   15.68</time>
   <time name="total">   26.05   27.40</time>
   <energy>
    <i name="e_fr_energy">   -377.36078236 </i>
    <i name="e_wo_entrp">   -377.36078236 </i>
    <i name="e_0_energy">   -377.36078236 </i>
   </energy>
  </scstep>
  <scstep>
   <time name="dav">   14.42   15.66</time>
   <time name="total">   26.11   27.46</time>
   <energy>
    <i name="e_fr_energy">   -377.37042529 </i>
    <i name="e_wo_entrp">   -377.37042529 </i>
    <i name="e_0_energy">   -377.37042529 </i>
   </energy>
  </scstep>
  <scstep>
   <time name="dav">   14.45   15.69</time>
   <time name="total">   26.22   27.48</time>
   <energy>
    <i name="e_fr_energy">   -377.37758109 </i>
    <i name="e_wo_entrp">   -377.37758109 </i>
    <i name="e_0_energy">   -377.37758109 </i>
   </energy>
  </scstep>
  <scstep>
   <time name="dav">   14.34   15.58</time>
   <time name="total">   25.97   27.23</time>
   <energy>
    <i name="e_fr_energy">   -377.38204349 </i>
    <i name="e_wo_entrp">   -377.38204349 </i>
    <i name="e_0_energy">   -377.38204349 </i>
   </energy>
  </scstep>
  <scstep>
   <time name="dav">   14.32   15.55</time>
   <time name="total">   25.99   27.36</time>
   <energy>
    <i name="e_fr_energy">   -377.38531388 </i>
    <i name="e_wo_entrp">   -377.38531388 </i>
    <i name="e_0_energy">   -377.38531388 </i>
   </energy>
  </scstep>
  <scstep>
   <time name="dav">   14.32   15.56</time>
   <time name="total">   26.13   27.40</time>
   <energy>
    <i name="e_fr_energy">   -377.38706735 </i>
    <i name="e_wo_entrp">   -377.38706735 </i>
    <i name="e_0_energy">   -377.38706735 </i>
   </energy>
  </scstep>
  <scstep>
   <time name="dav">   14.39   15.73</time>
   <time name="total">   26.15   27.51</time>
   <energy>
    <i name="e_fr_energy">   -377.38861039 </i>
    <i name="e_wo_entrp">   -377.38861039 </i>
    <i name="e_0_energy">   -377.38861039 </i>
   </energy>
  </scstep>
  <scstep>
   <time name="dav">   14.33   15.57</time>
   <time name="total">   26.16   27.44</time>
   <energy>
    <i name="e_fr_energy">   -377.38966313 </i>
    <i name="e_wo_entrp">   -377.38966313 </i>
    <i name="e_0_energy">   -377.38966313 </i>
   </energy>
  </scstep>
  <scstep>
   <time name="dav">   12.44   13.75</time>
   <time name="total">   24.21   25.60</time>
   <energy>
    <i name="e_fr_energy">   -377.39004746 </i>
    <i name="e_wo_entrp">   -377.39004746 </i>
    <i name="e_0_energy">   -377.39004746 </i>
   </energy>
  </scstep>
  <scstep>
   <time name="dav">   12.61   13.75</time>
   <time name="total">   24.35   25.52</time>
   <energy>
    <i name="e_fr_energy">   -377.39041856 </i>
    <i name="e_wo_entrp">   -377.39041856 </i>
    <i name="e_0_energy">   -377.39041856 </i>
   </energy>
  </scstep>
  <scstep>
   <time name="dav">   12.44   13.62</time>
   <time name="total">   24.22   25.49</time>
   <energy>
    <i name="e_fr_energy">   -377.39051317 </i>
    <i name="e_wo_entrp">   -377.39051317 </i>
    <i name="e_0_energy">   -377.39051317 </i>
   </energy>
  </scstep>
  <scstep>
   <time name="dav">   12.45   13.66</time>
   <time name="total">   24.10   25.42</time>
   <energy>
    <i name="e_fr_energy">   -377.39065508 </i>
    <i name="e_wo_entrp">   -377.39065508 </i>
    <i name="e_0_energy">   -377.39065508 </i>
   </energy>
  </scstep>
  <scstep>
   <time name="dav">   12.45   13.65</time>
   <time name="total">   24.24   25.49</time>
   <energy>
    <i name="e_fr_energy">   -377.39071172 </i>
    <i name="e_wo_entrp">   -377.39071172 </i>
    <i name="e_0_energy">   -377.39071172 </i>
   </energy>
  </scstep>
  <scstep>
   <time name="dav">   12.62   13.81</time>
   <time name="total">   24.38   25.60</time>
   <energy>
    <i name="e_fr_energy">   -377.39073890 </i>
    <i name="e_wo_entrp">   -377.39073890 </i>
    <i name="e_0_energy">   -377.39073890 </i>
   </energy>
  </scstep>
  <scstep>
   <time name="dav">   12.49   13.67</time>
   <time name="total">   24.28   25.52</time>
   <energy>
    <i name="e_fr_energy">   -377.39075162 </i>
    <i name="e_wo_entrp">   -377.39075162 </i>
    <i name="e_0_energy">   -377.39075162 </i>
   </energy>
  </scstep>
  <scstep>
   <time name="dav">   12.72   13.94</time>
   <time name="total">   24.66   25.94</time>
   <energy>
    <i name="e_fr_energy">   -377.39076295 </i>
    <i name="e_wo_entrp">   -377.39076295 </i>
    <i name="e_0_energy">   -377.39076295 </i>
   </energy>
  </scstep>
  <scstep>
   <time name="dav">   12.57   13.80</time>
   <time name="total">   19.84   21.10</time>
   <energy>
    <i name="alphaZ">     12.91687988 </i>
    <i name="ewald">  23289.95385856 </i>
    <i name="hartreedc"> -29129.51498563 </i>
    <i name="XCdc">    424.26932430 </i>
    <i name="pawpsdc">  81124.66494944 </i>
    <i name="pawaedc"> -80951.46389720 </i>
    <i name="eentropy">     -0.00000000 </i>
    <i name="bandstr">  -2741.61680819 </i>
    <i name="atom">   7593.39991119 </i>
    <i name="e_fr_energy">   -377.39076764 </i>
    <i name="e_wo_entrp">   -377.39076764 </i>
    <i name="e_0_energy">   -377.39076764 </i>
   </energy>
  </scstep>
  <structure>
   <crystal>
    <varray name="basis" >
     <v>      20.00000000       0.00000000       0.00000000 </v>
     <v>       0.00000000      20.00000000       0.00000000 </v>
     <v>       0.00000000       0.00000000      20.00000000 </v>
    </varray>
    <i name="volume">   8000.00000000 </i>
    <varray name="rec_basis" >
     <v>       0.05000000       0.00000000       0.00000000 </v>
     <v>       0.00000000       0.05000000       0.00000000 </v>
     <v>       0.00000000       0.00000000       0.05000000 </v>
    </varray>
   </crystal>
   <varray name="positions" >
    <v>       0.36904589       0.57756069       0.65398228 </v>
    <v>       0.43793752       0.56561110       0.32757008 </v>
    <v>       0.45581208       0.52423376       0.38051465 </v>
    <v>       0.47372925       0.61530131       0.44986522 </v>
    <v>       0.45595175       0.65963312       0.39935201 </v>
    <v>       0.43785737       0.63472201       0.33675972 </v>
    <v>       0.52307882       0.32955005       0.67474498 </v>
    <v>       0.49710163       0.37190466       0.62618823 </v>
    <v>       0.60227374       0.41933300       0.60593616 </v>
    <v>       0.63096398       0.37761922       0.65422416 </v>
    <v>       0.73964927       0.52855915       0.53463181 </v>
    <v>       0.70082162       0.56612858       0.49044049 </v>
    <v>       0.63257913       0.55363620       0.48652424 </v>
    <v>       0.63952130       0.46927713       0.56732841 </v>
    <v>       0.70843899       0.47974495       0.57314689 </v>
    <v>       0.59134754       0.33224398       0.68903016 </v>
    <v>       0.36211554       0.48866484       0.56417415 </v>
    <v>       0.40790931       0.62211625       0.69058213 </v>
    <v>       0.47619960       0.62606623       0.67660612 </v>
    <v>       0.50295190       0.58590820       0.62668073 </v>
    <v>       0.39825425       0.53800137       0.60426081 </v>
    <v>       0.29334713       0.47671938       0.56830116 </v>
    <v>       0.37289802       0.40579857       0.48223443 </v>
    <v>       0.30486503       0.39173492       0.48443166 </v>
    <v>       0.26422003       0.42785518       0.52821594 </v>
    <v>       0.48989745       0.29510618       0.70074864 </v>
    <v>       0.61334240       0.29968355       0.72673159 </v>
    <v>       0.68424189       0.38076917       0.66478776 </v>
    <v>       0.54225374       0.36233861       0.46129841 </v>
    <v>       0.31579090       0.57306911       0.66420366 </v>
    <v>       0.44416348       0.37118871       0.61364770 </v>
    <v>       0.42392665       0.66833230       0.29622671 </v>
    <v>       0.45642762       0.71313270       0.40950260 </v>
    <v>       0.48809132       0.63358802       0.49907234 </v>
    <v>       0.56912778       0.41808713       0.41480476 </v>
    <v>       0.73767440       0.44963919       0.60776512 </v>
    <v>       0.72277620       0.60481012       0.45904817 </v>
    <v>       0.45570253       0.47012894       0.37468790 </v>
    <v>       0.40614333       0.37888556       0.44852541 </v>
    <v>       0.28443799       0.35306162       0.45202062 </v>
    <v>       0.79326502       0.53703787       0.53892527 </v>
    <v>       0.55589708       0.58769132       0.61440612 </v>
    <v>       0.42412006       0.54328620       0.27986105 </v>
    <v>       0.50894741       0.65984570       0.70400156 </v>
    <v>       0.26265982       0.50568523       0.60265428 </v>
    <v>       0.21072272       0.41813760       0.53105039 </v>
    <v>       0.60090654       0.58197914       0.45254259 </v>
    <v>       0.38544357       0.65296704       0.72941133 </v>
    <v>       0.47424490       0.54794204       0.44140236 </v>
    <v>       0.40180479       0.45306079       0.52108436 </v>
    <v>       0.53520702       0.41608490       0.59173240 </v>
    <v>       0.46544808       0.54254992       0.59041194 </v>
    <v>       0.60138410       0.50650621       0.52397638 </v>
    <v>       0.53073984       0.40562607       0.44215451 </v>
    <v>       0.50088568       0.48087016       0.51934246 </v>
   </varray>
  </structure>
  <varray name="forces" >
   <v>       0.21941084       0.00786421      -0.04629954 </v>
   <v>      -0.00719367      -0.00293394      -0.00500044 </v>
   <v>       0.00399825      -0.02126161       0.00577422 </v>
   <v>      -0.00814096      -0.01318150      -0.01601435 </v>
   <v>       0.00583226       0.02008345       0.03534602 </v>
   <v>       0.00264001      -0.01175686      -0.00147085 </v>
   <v>      -0.00713151      -0.00800994       0.01494587 </v>
   <v>       0.00346601       0.01465666      -0.02372211 </v>
   <v>      -0.01567341      -0.00241063      -0.00409194 </v>
   <v>       0.00675852       0.01274754      -0.00381045 </v>
   <v>      -0.01582070       0.01526609      -0.01967015 </v>
   <v>       0.02886142      -0.00188228       0.01099680 </v>
   <v>      -0.04886597       0.00224970      -0.00941565 </v>
   <v>      -0.00652610       0.00722748      -0.01475827 </v>
   <v>      -0.00884672      -0.00897676       0.00991624 </v>
   <v>      -0.01878192       0.00127364      -0.00832130 </v>
   <v>      -0.18649902       0.02562579       0.07571847 </v>
   <v>      -0.46363055      -0.57159055      -0.47572640 </v>
   <v>       0.03277332      -0.08021349      -0.08533215 </v>
   <v>      -0.09208855       0.14563765       0.21678756 </v>
   <v>      -0.41950604       0.34052911       0.47689457 </v>
   <v>       0.04184255       0.05221733       0.04857673 </v>
   <v>       0.08335133       0.05349583       0.03378129 </v>
   <v>      -0.04187459       0.03432463       0.04347461 </v>
   <v>      -0.06666826      -0.01026107       0.00627915 </v>
   <v>      -0.00063796      -0.00709082       0.00165093 </v>
   <v>       0.00169667      -0.00614853       0.00389845 </v>
   <v>      -0.00108024      -0.00209482       0.00107098 </v>
   <v>       0.01461757      -0.03116269      -0.00502320 </v>
   <v>       1.16504146       0.11568794      -0.20732967 </v>
   <v>      -0.00356027      -0.02500605       0.00086518 </v>
   <v>      -0.00077558       0.00694245      -0.00009550 </v>
   <v>       0.00536349       0.00368480      -0.00391738 </v>
   <v>       0.01853969       0.02938826      -0.02205829 </v>
   <v>       0.01711921      -0.00069426      -0.02509099 </v>
   <v>       0.00584423      -0.00038319      -0.00076470 </v>
   <v>       0.00212260       0.00124426      -0.00641124 </v>
   <v>      -0.00016170      -0.00224109      -0.01276917 </v>
   <v>       0.00453657       0.00606698       0.00566241 </v>
   <v>      -0.01058751      -0.00754512      -0.00196609 </v>
   <v>       0.00186440       0.00150749       0.00000569 </v>
   <v>       0.01028862       0.00181901      -0.00365576 </v>
   <v>      -0.00363478      -0.00034119       0.00299337 </v>
   <v>      -0.07591220       0.01358201       0.02936938 </v>
   <v>      -0.07802015      -0.01597421      -0.00203933 </v>
   <v>      -0.00299220       0.00252908       0.00187180 </v>
   <v>       0.00854428       0.00022803      -0.00982308 </v>
   <v>      -0.15039404      -0.07787366      -0.04733124 </v>
   <v>      -0.00473694       0.01535201      -0.08279395 </v>
   <v>       0.15425403       0.06239910       0.00359651 </v>
   <v>       0.08399594      -0.11651648       0.09441786 </v>
   <v>      -0.05273538      -0.17835796      -0.15470711 </v>
   <v>       0.11878633       0.04285667       0.00771326 </v>
   <v>      -0.03975332       0.10056247       0.11727076 </v>
   <v>      -0.20931936       0.06685902       0.05053219 </v>
  </varray>
  <varray name="stress" >
   <v>      -2.98652132      -0.02816582       0.05374080 </v>
   <v>      -0.02816583      -2.90133231      -0.37658535 </v>
   <v>       0.05374080      -0.37658535      -2.96667046 </v>
  </varray>
  <energy>
   <i name="e_fr_energy">   -377.39076764 </i>
   <i name="e_wo_entrp">   -377.39076764 </i>
   <i name="e_0_energy">     -0.00000000 </i>
  </energy>
  <time name="totalsc">  971.71 1011.85</time>
  <eigenvalues>
   <array>
    <dimension dim="1">band</dimension>
    <dimension dim="2">kpoint</dimension>
    <dimension dim="3">spin</dimension>
    <field>eigene</field>
    <field>occ</field>
    <set>
     <set comment="spin 1">
      <set comment="kpoint 1">
       <r>  -49.1143    1.0000 </r>
       <r>  -48.9583    1.0000 </r>
       <r>  -48.7149    1.0000 </r>
       <r>  -29.1264    1.0000 </r>
       <r>  -27.5919    1.0000 </r>
       <r>  -26.8278    1.0000 </r>
       <r>  -26.5965    1.0000 </r>
       <r>  -26.1715    1.0000 </r>
       <r>  -26.1303    1.0000 </r>
       <r>  -24.1015    1.0000 </r>
       <r>  -23.0317    1.0000 </r>
       <r>  -22.5825    1.0000 </r>
       <r>  -22.4306    1.0000 </r>
       <r>  -22.3048    1.0000 </r>
       <r>  -22.2064    1.0000 </r>
       <r>  -22.0446    1.0000 </r>
       <r>  -21.5087    1.0000 </r>
       <r>  -21.1231    1.0000 </r>
       <r>  -20.7896    1.0000 </r>
       <r>  -19.6173    1.0000 </r>
       <r>  -19.3524    1.0000 </r>
       <r>  -18.7122    1.0000 </r>
       <r>  -18.4479    1.0000 </r>
       <r>  -18.2210    1.0000 </r>
       <r>  -17.9961    1.0000 </r>
       <r>  -17.8422    1.0000 </r>
       <r>  -17.6411    1.0000 </r>
       <r>  -17.5931    1.0000 </r>
       <r>  -17.2976    1.0000 </r>
       <r>  -16.8024    1.0000 </r>
       <r>  -16.6497    1.0000 </r>
       <r>  -15.8702    1.0000 </r>
       <r>  -15.7328    1.0000 </r>
       <r>  -15.4370    1.0000 </r>
       <r>  -15.2839    1.0000 </r>
       <r>  -14.8508    1.0000 </r>
       <r>  -14.7565    1.0000 </r>
       <r>  -14.6785    1.0000 </r>
       <r>  -14.4508    1.0000 </r>
       <r>  -14.1399    1.0000 </r>
       <r>  -14.0608    1.0000 </r>
       <r>  -14.0468    1.0000 </r>
       <r>  -13.9563    1.0000 </r>
       <r>  -13.9325    1.0000 </r>
       <r>  -13.7868    1.0000 </r>
       <r>  -13.4234    1.0000 </r>
       <r>  -13.3831    1.0000 </r>
       <r>  -13.3108    1.0000 </r>
       <r>  -13.2693    1.0000 </r>
       <r>  -13.1927    1.0000 </r>
       <r>  -12.9999    1.0000 </r>
       <r>  -12.9563    1.0000 </r>
       <r>  -12.7438    1.0000 </r>
       <r>  -12.6928    1.0000 </r>
       <r>  -12.4759    1.0000 </r>
       <r>  -12.4219    1.0000 </r>
       <r>  -12.3117    1.0000 </r>
       <r>  -12.2511    1.0000 </r>
       <r>  -12.1501    1.0000 </r>
       <r>  -12.0358    1.0000 </r>
       <r>  -11.6513    1.0000 </r>
       <r>  -11.4173    1.0000 </r>
       <r>  -11.2744    1.0000 </r>
       <r>  -11.1703    1.0000 </r>
       <r>  -11.1161    1.0000 </r>
       <r>  -11.0806    1.0000 </r>
       <r>  -10.8144    1.0000 </r>
       <r>  -10.7511    1.0000 </r>
       <r>  -10.5797    1.0000 </r>
       <r>  -10.4295    1.0000 </r>
       <r>  -10.0374    1.0000 </r>
       <r>   -9.9584    1.0000 </r>
       <r>   -9.8378    1.0000 </r>
       <r>   -9.7564    1.0000 </r>
       <r>   -9.7208    1.0000 </r>
       <r>   -9.6319    1.0000 </r>
       <r>   -9.4276    1.0000 </r>
       <r>   -9.0453    1.0000 </r>
       <r>   -8.7446    1.0000 </r>
       <r>   -8.3906    1.0000 </r>
       <r>   -7.4354    1.0000 </r>
       <r>   -7.2729    1.0000 </r>
       <r>   -7.1341    1.0000 </r>
       <r>   -5.6209    0.0000 </r>
       <r>   -5.2709    0.0000 </r>
       <r>   -5.0116    0.0000 </r>
       <r>   -4.3297    0.0000 </r>
       <r>   -4.1684    0.0000 </r>
       <r>   -4.1273    0.0000 </r>
       <r>   -3.9783    0.0000 </r>
       <r>   -3.9162    0.0000 </r>
       <r>   -3.5102    0.0000 </r>
       <r>   -3.2557    0.0000 </r>
       <r>   -3.0879    0.0000 </r>
       <r>   -2.7914    0.0000 </r>
       <r>   -2.7340    0.0000 </r>
       <r>   -2.1121    0.0000 </r>
       <r>   -1.6890    0.0000 </r>
       <r>   -1.5440    0.0000 </r>
       <r>   -1.4847    0.0000 </r>
       <r>   -1.2661    0.0000 </r>
       <r>   -1.2018    0.0000 </r>
       <r>   -1.1129    0.0000 </r>
       <r>   -1.0195    0.0000 </r>
       <r>   -0.8633    0.0000 </r>
       <r>   -0.7870    0.0000 </r>
       <r>   -0.6645    0.0000 </r>
       <r>   -0.6441    0.0000 </r>
       <r>   -0.5428    0.0000 </r>
       <r>   -0.5226    0.0000 </r>
       <r>   -0.4622    0.0000 </r>
       <r>   -0.3514    0.0000 </r>
       <r>   -0.2048    0.0000 </r>
       <r>   -0.1305    0.0000 </r>
       <r>   -0.0509    0.0000 </r>
       <r>    0.0181    0.0000 </r>
       <r>    0.0555    0.0000 </r>
       <r>    0.1397    0.0000 </r>
       <r>    0.2221    0.0000 </r>
       <r>    0.2560    0.0000 </r>
       <r>    0.3170    0.0000 </r>
       <r>    0.3674    0.0000 </r>
       <r>    0.4035    0.0000 </r>
       <r>    0.4490    0.0000 </r>
       <r>    0.5614    0.0000 </r>
       <r>    0.6345    0.0000 </r>
       <r>    0.6480    0.0000 </r>
       <r>    0.6724    0.0000 </r>
      </set>
     </set>
     <set comment="spin 2">
      <set comment="kpoint 1">
       <r>  -49.1143    1.0000 </r>
       <r>  -48.9583    1.0000 </r>
       <r>  -48.7149    1.0000 </r>
       <r>  -29.1264    1.0000 </r>
       <r>  -27.5919    1.0000 </r>
       <r>  -26.8278    1.0000 </r>
       <r>  -26.5965    1.0000 </r>
       <r>  -26.1715    1.0000 </r>
       <r>  -26.1303    1.0000 </r>
       <r>  -24.1015    1.0000 </r>
       <r>  -23.0317    1.0000 </r>
       <r>  -22.5825    1.0000 </r>
       <r>  -22.4306    1.0000 </r>
       <r>  -22.3048    1.0000 </r>
       <r>  -22.2064    1.0000 </r>
       <r>  -22.0446    1.0000 </r>
       <r>  -21.5087    1.0000 </r>
       <r>  -21.1231    1.0000 </r>
       <r>  -20.7896    1.0000 </r>
       <r>  -19.6173    1.0000 </r>
       <r>  -19.3524    1.0000 </r>
       <r>  -18.7122    1.0000 </r>
       <r>  -18.4479    1.0000 </r>
       <r>  -18.2210    1.0000 </r>
       <r>  -17.9961    1.0000 </r>
       <r>  -17.8422    1.0000 </r>
       <r>  -17.6411    1.0000 </r>
       <r>  -17.5931    1.0000 </r>
       <r>  -17.2976    1.0000 </r>
       <r>  -16.8024    1.0000 </r>
       <r>  -16.6497    1.0000 </r>
       <r>  -15.8702    1.0000 </r>
       <r>  -15.7328    1.0000 </r>
       <r>  -15.4370    1.0000 </r>
       <r>  -15.2839    1.0000 </r>
       <r>  -14.8508    1.0000 </r>
       <r>  -14.7565    1.0000 </r>
       <r>  -14.6785    1.0000 </r>
       <r>  -14.4508    1.0000 </r>
       <r>  -14.1399    1.0000 </r>
       <r>  -14.0608    1.0000 </r>
       <r>  -14.0468    1.0000 </r>
       <r>  -13.9563    1.0000 </r>
       <r>  -13.9325    1.0000 </r>
       <r>  -13.7868    1.0000 </r>
       <r>  -13.4234    1.0000 </r>
       <r>  -13.3831    1.0000 </r>
       <r>  -13.3108    1.0000 </r>
       <r>  -13.2693    1.0000 </r>
       <r>  -13.1927    1.0000 </r>
       <r>  -12.9999    1.0000 </r>
       <r>  -12.9563    1.0000 </r>
       <r>  -12.7438    1.0000 </r>
       <r>  -12.6928    1.0000 </r>
       <r>  -12.4759    1.0000 </r>
       <r>  -12.4219    1.0000 </r>
       <r>  -12.3117    1.0000 </r>
       <r>  -12.2511    1.0000 </r>
       <r>  -12.1501    1.0000 </r>
       <r>  -12.0358    1.0000 </r>
       <r>  -11.6513    1.0000 </r>
       <r>  -11.4173    1.0000 </r>
       <r>  -11.2744    1.0000 </r>
       <r>  -11.1703    1.0000 </r>
       <r>  -11.1161    1.0000 </r>
       <r>  -11.0806    1.0000 </r>
       <r>  -10.8144    1.0000 </r>
       <r>  -10.7511    1.0000 </r>
       <r>  -10.5797    1.0000 </r>
       <r>  -10.4295    1.0000 </r>
       <r>  -10.0374    1.0000 </r>
       <r>   -9.9584    1.0000 </r>
       <r>   -9.8378    1.0000 </r>
       <r>   -9.7564    1.0000 </r>
       <r>   -9.7208    1.0000 </r>
       <r>   -9.6319    1.0000 </r>
       <r>   -9.4276    1.0000 </r>
       <r>   -9.0453    1.0000 </r>
       <r>   -8.7446    1.0000 </r>
       <r>   -8.3906    1.0000 </r>
       <r>   -7.4354    1.0000 </r>
       <r>   -7.2729    1.0000 </r>
       <r>   -7.1341    1.0000 </r>
       <r>   -5.6209    0.0000 </r>
       <r>   -5.2709    0.0000 </r>
       <r>   -5.0116    0.0000 </r>
       <r>   -4.3297    0.0000 </r>
       <r>   -4.1684    0.0000 </r>
       <r>   -4.1273    0.0000 </r>
       <r>   -3.9783    0.0000 </r>
       <r>   -3.9162    0.0000 </r>
       <r>   -3.5102    0.0000 </r>
       <r>   -3.2557    0.0000 </r>
       <r>   -3.0879    0.0000 </r>
       <r>   -2.7914    0.0000 </r>
       <r>   -2.7340    0.0000 </r>
       <r>   -2.1121    0.0000 </r>
       <r>   -1.6890    0.0000 </r>
       <r>   -1.5440    0.0000 </r>
       <r>   -1.4847    0.0000 </r>
       <r>   -1.2661    0.0000 </r>
       <r>   -1.2018    0.0000 </r>
       <r>   -1.1129    0.0000 </r>
       <r>   -1.0195    0.0000 </r>
       <r>   -0.8633    0.0000 </r>
       <r>   -0.7870    0.0000 </r>
       <r>   -0.6645    0.0000 </r>
       <r>   -0.6441    0.0000 </r>
       <r>   -0.5428    0.0000 </r>
       <r>   -0.5226    0.0000 </r>
       <r>   -0.4622    0.0000 </r>
       <r>   -0.3514    0.0000 </r>
       <r>   -0.2048    0.0000 </r>
       <r>   -0.1305    0.0000 </r>
       <r>   -0.0509    0.0000 </r>
       <r>    0.0181    0.0000 </r>
       <r>    0.0555    0.0000 </r>
       <r>    0.1397    0.0000 </r>
       <r>    0.2221    0.0000 </r>
       <r>    0.2560    0.0000 </r>
       <r>    0.3170    0.0000 </r>
       <r>    0.3674    0.0000 </r>
       <r>    0.4035    0.0000 </r>
       <r>    0.4490    0.0000 </r>
       <r>    0.5614    0.0000 </r>
       <r>    0.6345    0.0000 </r>
       <r>    0.6480    0.0000 </r>
       <r>    0.6724    0.0000 </r>
      </set>
     </set>
    </set>
   </array>
  </eigenvalues>
  <separator name="orbital magnetization" >
   <v name="MAGDIPOLOUT">      0.00000000      0.00000000      0.00000000</v>
  </separator>
  <dos>
   <i name="efermi">     -7.01548148 </i>
   <total>
    <array>
     <dimension dim="1">gridpoints</dimension>
     <dimension dim="2">spin</dimension>
     <field>energy</field>
     <field>total</field>
     <field>integrated</field>
     <set>
      <set comment="spin 1">
       <r>   -51.6037     0.0000     0.0000 </r>
       <r>   -51.4211     0.0000     0.0000 </r>
       <r>   -51.2386     0.0000     0.0000 </r>
       <r>   -51.0560     0.0000     0.0000 </r>
       <r>   -50.8735     0.0000     0.0000 </r>
       <r>   -50.6909     0.0000     0.0000 </r>
       <r>   -50.5084     0.0000     0.0000 </r>
       <r>   -50.3258     0.0000     0.0000 </r>
       <r>   -50.1433     0.0000     0.0000 </r>
       <r>   -49.9607     0.0000     0.0000 </r>
       <r>   -49.7782     0.0000     0.0000 </r>
       <r>   -49.5956     0.0000     0.0000 </r>
       <r>   -49.4131     0.0000     0.0000 </r>
       <r>   -49.2305     0.0000     0.0000 </r>
       <r>   -49.0480    10.9558     2.0000 </r>
       <r>   -48.8654     0.0000     4.0000 </r>
       <r>   -48.6829    10.9558     6.0000 </r>
       <r>   -48.5003     0.0000     6.0000 </r>
       <r>   -48.3178     0.0000     6.0000 </r>
       <r>   -48.1352     0.0000     6.0000 </r>
       <r>   -47.9527     0.0000     6.0000 </r>
       <r>   -47.7701     0.0000     6.0000 </r>
       <r>   -47.5875     0.0000     6.0000 </r>
       <r>   -47.4050     0.0000     6.0000 </r>
       <r>   -47.2224     0.0000     6.0000 </r>
       <r>   -47.0399     0.0000     6.0000 </r>
       <r>   -46.8573     0.0000     6.0000 </r>
       <r>   -46.6748     0.0000     6.0000 </r>
       <r>   -46.4922     0.0000     6.0000 </r>
       <r>   -46.3097     0.0000     6.0000 </r>
       <r>   -46.1271     0.0000     6.0000 </r>
       <r>   -45.9446     0.0000     6.0000 </r>
       <r>   -45.7620     0.0000     6.0000 </r>
       <r>   -45.5795     0.0000     6.0000 </r>
       <r>   -45.3969     0.0000     6.0000 </r>
       <r>   -45.2144     0.0000     6.0000 </r>
       <r>   -45.0318     0.0000     6.0000 </r>
       <r>   -44.8493     0.0000     6.0000 </r>
       <r>   -44.6667     0.0000     6.0000 </r>
       <r>   -44.4842     0.0000     6.0000 </r>
       <r>   -44.3016     0.0000     6.0000 </r>
       <r>   -44.1191     0.0000     6.0000 </r>
       <r>   -43.9365     0.0000     6.0000 </r>
       <r>   -43.7540     0.0000     6.0000 </r>
       <r>   -43.5714     0.0000     6.0000 </r>
       <r>   -43.3889     0.0000     6.0000 </r>
       <r>   -43.2063     0.0000     6.0000 </r>
       <r>   -43.0238     0.0000     6.0000 </r>
       <r>   -42.8412     0.0000     6.0000 </r>
       <r>   -42.6587     0.0000     6.0000 </r>
       <r>   -42.4761     0.0000     6.0000 </r>
       <r>   -42.2936     0.0000     6.0000 </r>
       <r>   -42.1110     0.0000     6.0000 </r>
       <r>   -41.9285     0.0000     6.0000 </r>
       <r>   -41.7459     0.0000     6.0000 </r>
       <r>   -41.5634     0.0000     6.0000 </r>
       <r>   -41.3808     0.0000     6.0000 </r>
       <r>   -41.1982     0.0000     6.0000 </r>
       <r>   -41.0157     0.0000     6.0000 </r>
       <r>   -40.8331     0.0000     6.0000 </r>
       <r>   -40.6506     0.0000     6.0000 </r>
       <r>   -40.4680     0.0000     6.0000 </r>
       <r>   -40.2855     0.0000     6.0000 </r>
       <r>   -40.1029     0.0000     6.0000 </r>
       <r>   -39.9204     0.0000     6.0000 </r>
       <r>   -39.7378     0.0000     6.0000 </r>
       <r>   -39.5553     0.0000     6.0000 </r>
       <r>   -39.3727     0.0000     6.0000 </r>
       <r>   -39.1902     0.0000     6.0000 </r>
       <r>   -39.0076     0.0000     6.0000 </r>
       <r>   -38.8251     0.0000     6.0000 </r>
       <r>   -38.6425     0.0000     6.0000 </r>
       <r>   -38.4600     0.0000     6.0000 </r>
       <r>   -38.2774     0.0000     6.0000 </r>
       <r>   -38.0949     0.0000     6.0000 </r>
       <r>   -37.9123     0.0000     6.0000 </r>
       <r>   -37.7298     0.0000     6.0000 </r>
       <r>   -37.5472     0.0000     6.0000 </r>
       <r>   -37.3647     0.0000     6.0000 </r>
       <r>   -37.1821     0.0000     6.0000 </r>
       <r>   -36.9996     0.0000     6.0000 </r>
       <r>   -36.8170     0.0000     6.0000 </r>
       <r>   -36.6345     0.0000     6.0000 </r>
       <r>   -36.4519     0.0000     6.0000 </r>
       <r>   -36.2694     0.0000     6.0000 </r>
       <r>   -36.0868     0.0000     6.0000 </r>
       <r>   -35.9043     0.0000     6.0000 </r>
       <r>   -35.7217     0.0000     6.0000 </r>
       <r>   -35.5392     0.0000     6.0000 </r>
       <r>   -35.3566     0.0000     6.0000 </r>
       <r>   -35.1740     0.0000     6.0000 </r>
       <r>   -34.9915     0.0000     6.0000 </r>
       <r>   -34.8089     0.0000     6.0000 </r>
       <r>   -34.6264     0.0000     6.0000 </r>
       <r>   -34.4438     0.0000     6.0000 </r>
       <r>   -34.2613     0.0000     6.0000 </r>
       <r>   -34.0787     0.0000     6.0000 </r>
       <r>   -33.8962     0.0000     6.0000 </r>
       <r>   -33.7136     0.0000     6.0000 </r>
       <r>   -33.5311     0.0000     6.0000 </r>
       <r>   -33.3485     0.0000     6.0000 </r>
       <r>   -33.1660     0.0000     6.0000 </r>
       <r>   -32.9834     0.0000     6.0000 </r>
       <r>   -32.8009     0.0000     6.0000 </r>
       <r>   -32.6183     0.0000     6.0000 </r>
       <r>   -32.4358     0.0000     6.0000 </r>
       <r>   -32.2532     0.0000     6.0000 </r>
       <r>   -32.0707     0.0000     6.0000 </r>
       <r>   -31.8881     0.0000     6.0000 </r>
       <r>   -31.7056     0.0000     6.0000 </r>
       <r>   -31.5230     0.0000     6.0000 </r>
       <r>   -31.3405     0.0000     6.0000 </r>
       <r>   -31.1579     0.0000     6.0000 </r>
       <r>   -30.9754     0.0000     6.0000 </r>
       <r>   -30.7928     0.0000     6.0000 </r>
       <r>   -30.6103     0.0000     6.0000 </r>
       <r>   -30.4277     0.0000     6.0000 </r>
       <r>   -30.2452     0.0000     6.0000 </r>
       <r>   -30.0626     0.0000     6.0000 </r>
       <r>   -29.8801     0.0000     6.0000 </r>
       <r>   -29.6975     0.0000     6.0000 </r>
       <r>   -29.5150     0.0000     6.0000 </r>
       <r>   -29.3324     0.0000     6.0000 </r>
       <r>   -29.1498     0.0050     6.0009 </r>
       <r>   -28.9673     0.0000     8.0000 </r>
       <r>   -28.7847     0.0000     8.0000 </r>
       <r>   -28.6022     0.0000     8.0000 </r>
       <r>   -28.4196     0.0000     8.0000 </r>
       <r>   -28.2371     0.0000     8.0000 </r>
       <r>   -28.0545     0.0000     8.0000 </r>
       <r>   -27.8720     0.0000     8.0000 </r>
       <r>   -27.6894     0.0000     8.0000 </r>
       <r>   -27.5069     0.0000    10.0000 </r>
       <r>   -27.3243     0.0000    10.0000 </r>
       <r>   -27.1418     0.0000    10.0000 </r>
       <r>   -26.9592     0.0000    10.0000 </r>
       <r>   -26.7767    10.9558    12.0000 </r>
       <r>   -26.5941     6.9105    13.2615 </r>
       <r>   -26.4116     0.0000    14.0000 </r>
       <r>   -26.2290     0.0000    14.0000 </r>
       <r>   -26.0465     0.0000    18.0000 </r>
       <r>   -25.8639     0.0000    18.0000 </r>
       <r>   -25.6814     0.0000    18.0000 </r>
       <r>   -25.4988     0.0000    18.0000 </r>
       <r>   -25.3163     0.0000    18.0000 </r>
       <r>   -25.1337     0.0000    18.0000 </r>
       <r>   -24.9512     0.0000    18.0000 </r>
       <r>   -24.7686     0.0000    18.0000 </r>
       <r>   -24.5861     0.0000    18.0000 </r>
       <r>   -24.4035     0.0000    18.0000 </r>
       <r>   -24.2210     0.0000    18.0000 </r>
       <r>   -24.0384    10.9558    20.0000 </r>
       <r>   -23.8559     0.0000    20.0000 </r>
       <r>   -23.6733     0.0000    20.0000 </r>
       <r>   -23.4908     0.0000    20.0000 </r>
       <r>   -23.3082     0.0000    20.0000 </r>
       <r>   -23.1257     0.0000    20.0000 </r>
       <r>   -22.9431     0.0000    22.0000 </r>
       <r>   -22.7605     0.0000    22.0000 </r>
       <r>   -22.5780     8.0718    23.4735 </r>
       <r>   -22.3954    10.9558    26.0000 </r>
       <r>   -22.2129     1.9816    28.3618 </r>
       <r>   -22.0303    10.7133    31.9557 </r>
       <r>   -21.8478     0.0000    32.0000 </r>
       <r>   -21.6652     0.0000    32.0000 </r>
       <r>   -21.4827    10.9545    33.9998 </r>
       <r>   -21.3001     0.0000    34.0000 </r>
       <r>   -21.1176     8.5687    35.5642 </r>
       <r>   -20.9350     0.0000    36.0000 </r>
       <r>   -20.7525    10.9558    38.0000 </r>
       <r>   -20.5699     0.0000    38.0000 </r>
       <r>   -20.3874     0.0000    38.0000 </r>
       <r>   -20.2048     0.0000    38.0000 </r>
       <r>   -20.0223     0.0000    38.0000 </r>
       <r>   -19.8397     0.0000    38.0000 </r>
       <r>   -19.6572     0.0000    38.0000 </r>
       <r>   -19.4746     0.0000    40.0000 </r>
       <r>   -19.2921    10.9558    42.0000 </r>
       <r>   -19.1095     0.0000    42.0000 </r>
       <r>   -18.9270     0.0000    42.0000 </r>
       <r>   -18.7444     0.0000    42.0000 </r>
       <r>   -18.5619     0.0000    44.0000 </r>
       <r>   -18.3793    10.9558    46.0000 </r>
       <r>   -18.1968    10.9524    47.9994 </r>
       <r>   -18.0142     0.0580    48.0106 </r>
       <r>   -17.8317    10.2016    51.8623 </r>
       <r>   -17.6491     1.4053    52.2565 </r>
       <r>   -17.4666     0.0000    56.0000 </r>
       <r>   -17.2840    10.6600    57.9460 </r>
       <r>   -17.1015     0.0000    58.0000 </r>
       <r>   -16.9189     0.0000    58.0000 </r>
       <r>   -16.7363    10.9558    60.0000 </r>
       <r>   -16.5538     0.0000    62.0000 </r>
       <r>   -16.3712     0.0000    62.0000 </r>
       <r>   -16.1887     0.0000    62.0000 </r>
       <r>   -16.0061     0.0000    62.0000 </r>
       <r>   -15.8236    10.9558    64.0000 </r>
       <r>   -15.6410     0.0000    66.0000 </r>
       <r>   -15.4585     0.0131    66.0024 </r>
       <r>   -15.2759     9.5200    69.7379 </r>
       <r>   -15.0934     0.0000    70.0000 </r>
       <r>   -14.9108     0.0000    70.0000 </r>
       <r>   -14.7283    10.9554    73.9999 </r>
       <r>   -14.5457     0.0000    76.0000 </r>
       <r>   -14.3632     0.0000    78.0000 </r>
       <r>   -14.1806     0.0000    78.0000 </r>
       <r>   -13.9981    21.9116    84.0000 </r>
       <r>   -13.8155     0.0003    88.0000 </r>
       <r>   -13.6330     0.0000    90.0000 </r>
       <r>   -13.4504     0.0007    90.0001 </r>
       <r>   -13.2679    17.3282    97.1633 </r>
       <r>   -13.0853     0.0000   100.0000 </r>
       <r>   -12.9028    10.9558   104.0000 </r>
       <r>   -12.7202    10.9516   105.9992 </r>
       <r>   -12.5377     0.0000   108.0000 </r>
       <r>   -12.3551    10.9558   112.0000 </r>
       <r>   -12.1726    10.9642   116.0015 </r>
       <r>   -11.9900    10.9558   120.0000 </r>
       <r>   -11.8075     0.0000   120.0000 </r>
       <r>   -11.6249    10.9548   121.9998 </r>
       <r>   -11.4424     0.0022   122.0004 </r>
       <r>   -11.2598    10.7420   125.9610 </r>
       <r>   -11.0773    18.4086   131.3605 </r>
       <r>   -10.8947     0.0000   132.0000 </r>
       <r>   -10.7121    10.9558   136.0000 </r>
       <r>   -10.5296    10.9558   138.0000 </r>
       <r>   -10.3470     0.0000   140.0000 </r>
       <r>   -10.1645     0.0000   140.0000 </r>
       <r>    -9.9819    10.9606   142.0009 </r>
       <r>    -9.7994    10.9558   146.0000 </r>
       <r>    -9.6168    10.7761   151.9672 </r>
       <r>    -9.4343     1.9006   152.3470 </r>
       <r>    -9.2517     0.0000   154.0000 </r>
       <r>    -9.0692     0.0040   154.0007 </r>
       <r>    -8.8866     0.0000   156.0000 </r>
       <r>    -8.7041    10.9558   158.0000 </r>
       <r>    -8.5215     0.0000   158.0000 </r>
       <r>    -8.3390    10.9558   160.0000 </r>
       <r>    -8.1564     0.0000   160.0000 </r>
       <r>    -7.9739     0.0000   160.0000 </r>
       <r>    -7.7913     0.0000   160.0000 </r>
       <r>    -7.6088     0.0000   160.0000 </r>
       <r>    -7.4262     9.8789   161.8034 </r>
       <r>    -7.2437    10.9556   164.0000 </r>
       <r>    -7.0611    10.9558   166.0000 </r>
       <r>    -6.8786     0.0000   166.0000 </r>
       <r>    -6.6960     0.0000   166.0000 </r>
       <r>    -6.5135     0.0000   166.0000 </r>
       <r>    -6.3309     0.0000   166.0000 </r>
       <r>    -6.1484     0.0000   166.0000 </r>
       <r>    -5.9658     0.0000   166.0000 </r>
       <r>    -5.7833     0.0000   166.0000 </r>
       <r>    -5.6007    10.9319   167.9956 </r>
       <r>    -5.4182     0.0000   168.0000 </r>
       <r>    -5.2356    10.9558   170.0000 </r>
       <r>    -5.0531     0.0000   170.0000 </r>
       <r>    -4.8705     0.0000   172.0000 </r>
       <r>    -4.6879     0.0000   172.0000 </r>
       <r>    -4.5054     0.0000   172.0000 </r>
       <r>    -4.3228     9.1163   173.6642 </r>
       <r>    -4.1403    11.3206   176.0666 </r>
       <r>    -3.9577    10.9355   179.9963 </r>
       <r>    -3.7752     0.0000   182.0000 </r>
       <r>    -3.5926     0.0000   182.0000 </r>
       <r>    -3.4101     0.0000   184.0000 </r>
       <r>    -3.2275    10.9554   185.9999 </r>
       <r>    -3.0450    10.9558   188.0000 </r>
       <r>    -2.8624     0.0000   188.0000 </r>
       <r>    -2.6799    10.9558   192.0000 </r>
       <r>    -2.4973     0.0000   192.0000 </r>
       <r>    -2.3148     0.0000   192.0000 </r>
       <r>    -2.1322     0.0247   192.0045 </r>
       <r>    -1.9497     0.0000   194.0000 </r>
       <r>    -1.7671     0.0000   194.0000 </r>
       <r>    -1.5846     0.0000   196.0000 </r>
       <r>    -1.4020     0.0000   200.0000 </r>
       <r>    -1.2195    11.0234   202.0123 </r>
       <r>    -1.0369    11.0301   206.0136 </r>
       <r>    -0.8544     9.8105   209.7909 </r>
       <r>    -0.6718     1.6625   212.3035 </r>
       <r>    -0.4893    21.9123   220.0001 </r>
       <r>    -0.3067    10.9558   224.0000 </r>
       <r>    -0.1242     8.9350   227.6311 </r>
       <r>     0.0584    18.1927   233.3211 </r>
       <r>     0.2409    11.0935   238.0251 </r>
       <r>     0.4235    21.8876   245.9956 </r>
       <r>     0.6060    10.9561   250.0001 </r>
       <r>     0.7886     0.0000   256.0000 </r>
       <r>     0.9711     0.0000   256.0000 </r>
       <r>     1.1537     0.0000   256.0000 </r>
       <r>     1.3362     0.0000   256.0000 </r>
       <r>     1.5188     0.0000   256.0000 </r>
       <r>     1.7014     0.0000   256.0000 </r>
       <r>     1.8839     0.0000   256.0000 </r>
       <r>     2.0665     0.0000   256.0000 </r>
       <r>     2.2490     0.0000   256.0000 </r>
       <r>     2.4316     0.0000   256.0000 </r>
       <r>     2.6141     0.0000   256.0000 </r>
       <r>     2.7967     0.0000   256.0000 </r>
       <r>     2.9792     0.0000   256.0000 </r>
       <r>     3.1618     0.0000   256.0000 </r>
      </set>
      <set comment="spin 2">
       <r>   -51.6037     0.0000     0.0000 </r>
       <r>   -51.4211     0.0000     0.0000 </r>
       <r>   -51.2386     0.0000     0.0000 </r>
       <r>   -51.0560     0.0000     0.0000 </r>
       <r>   -50.8735     0.0000     0.0000 </r>
       <r>   -50.6909     0.0000     0.0000 </r>
       <r>   -50.5084     0.0000     0.0000 </r>
       <r>   -50.3258     0.0000     0.0000 </r>
       <r>   -50.1433     0.0000     0.0000 </r>
       <r>   -49.9607     0.0000     0.0000 </r>
       <r>   -49.7782     0.0000     0.0000 </r>
       <r>   -49.5956     0.0000     0.0000 </r>
       <r>   -49.4131     0.0000     0.0000 </r>
       <r>   -49.2305     0.0000     0.0000 </r>
       <r>   -49.0480    10.9558     2.0000 </r>
       <r>   -48.8654     0.0000     4.0000 </r>
       <r>   -48.6829    10.9558     6.0000 </r>
       <r>   -48.5003     0.0000     6.0000 </r>
       <r>   -48.3178     0.0000     6.0000 </r>
       <r>   -48.1352     0.0000     6.0000 </r>
       <r>   -47.9527     0.0000     6.0000 </r>
       <r>   -47.7701     0.0000     6.0000 </r>
       <r>   -47.5875     0.0000     6.0000 </r>
       <r>   -47.4050     0.0000     6.0000 </r>
       <r>   -47.2224     0.0000     6.0000 </r>
       <r>   -47.0399     0.0000     6.0000 </r>
       <r>   -46.8573     0.0000     6.0000 </r>
       <r>   -46.6748     0.0000     6.0000 </r>
       <r>   -46.4922     0.0000     6.0000 </r>
       <r>   -46.3097     0.0000     6.0000 </r>
       <r>   -46.1271     0.0000     6.0000 </r>
       <r>   -45.9446     0.0000     6.0000 </r>
       <r>   -45.7620     0.0000     6.0000 </r>
       <r>   -45.5795     0.0000     6.0000 </r>
       <r>   -45.3969     0.0000     6.0000 </r>
       <r>   -45.2144     0.0000     6.0000 </r>
       <r>   -45.0318     0.0000     6.0000 </r>
       <r>   -44.8493     0.0000     6.0000 </r>
       <r>   -44.6667     0.0000     6.0000 </r>
       <r>   -44.4842     0.0000     6.0000 </r>
       <r>   -44.3016     0.0000     6.0000 </r>
       <r>   -44.1191     0.0000     6.0000 </r>
       <r>   -43.9365     0.0000     6.0000 </r>
       <r>   -43.7540     0.0000     6.0000 </r>
       <r>   -43.5714     0.0000     6.0000 </r>
       <r>   -43.3889     0.0000     6.0000 </r>
       <r>   -43.2063     0.0000     6.0000 </r>
       <r>   -43.0238     0.0000     6.0000 </r>
       <r>   -42.8412     0.0000     6.0000 </r>
       <r>   -42.6587     0.0000     6.0000 </r>
       <r>   -42.4761     0.0000     6.0000 </r>
       <r>   -42.2936     0.0000     6.0000 </r>
       <r>   -42.1110     0.0000     6.0000 </r>
       <r>   -41.9285     0.0000     6.0000 </r>
       <r>   -41.7459     0.0000     6.0000 </r>
       <r>   -41.5634     0.0000     6.0000 </r>
       <r>   -41.3808     0.0000     6.0000 </r>
       <r>   -41.1982     0.0000     6.0000 </r>
       <r>   -41.0157     0.0000     6.0000 </r>
       <r>   -40.8331     0.0000     6.0000 </r>
       <r>   -40.6506     0.0000     6.0000 </r>
       <r>   -40.4680     0.0000     6.0000 </r>
       <r>   -40.2855     0.0000     6.0000 </r>
       <r>   -40.1029     0.0000     6.0000 </r>
       <r>   -39.9204     0.0000     6.0000 </r>
       <r>   -39.7378     0.0000     6.0000 </r>
       <r>   -39.5553     0.0000     6.0000 </r>
       <r>   -39.3727     0.0000     6.0000 </r>
       <r>   -39.1902     0.0000     6.0000 </r>
       <r>   -39.0076     0.0000     6.0000 </r>
       <r>   -38.8251     0.0000     6.0000 </r>
       <r>   -38.6425     0.0000     6.0000 </r>
       <r>   -38.4600     0.0000     6.0000 </r>
       <r>   -38.2774     0.0000     6.0000 </r>
       <r>   -38.0949     0.0000     6.0000 </r>
       <r>   -37.9123     0.0000     6.0000 </r>
       <r>   -37.7298     0.0000     6.0000 </r>
       <r>   -37.5472     0.0000     6.0000 </r>
       <r>   -37.3647     0.0000     6.0000 </r>
       <r>   -37.1821     0.0000     6.0000 </r>
       <r>   -36.9996     0.0000     6.0000 </r>
       <r>   -36.8170     0.0000     6.0000 </r>
       <r>   -36.6345     0.0000     6.0000 </r>
       <r>   -36.4519     0.0000     6.0000 </r>
       <r>   -36.2694     0.0000     6.0000 </r>
       <r>   -36.0868     0.0000     6.0000 </r>
       <r>   -35.9043     0.0000     6.0000 </r>
       <r>   -35.7217     0.0000     6.0000 </r>
       <r>   -35.5392     0.0000     6.0000 </r>
       <r>   -35.3566     0.0000     6.0000 </r>
       <r>   -35.1740     0.0000     6.0000 </r>
       <r>   -34.9915     0.0000     6.0000 </r>
       <r>   -34.8089     0.0000     6.0000 </r>
       <r>   -34.6264     0.0000     6.0000 </r>
       <r>   -34.4438     0.0000     6.0000 </r>
       <r>   -34.2613     0.0000     6.0000 </r>
       <r>   -34.0787     0.0000     6.0000 </r>
       <r>   -33.8962     0.0000     6.0000 </r>
       <r>   -33.7136     0.0000     6.0000 </r>
       <r>   -33.5311     0.0000     6.0000 </r>
       <r>   -33.3485     0.0000     6.0000 </r>
       <r>   -33.1660     0.0000     6.0000 </r>
       <r>   -32.9834     0.0000     6.0000 </r>
       <r>   -32.8009     0.0000     6.0000 </r>
       <r>   -32.6183     0.0000     6.0000 </r>
       <r>   -32.4358     0.0000     6.0000 </r>
       <r>   -32.2532     0.0000     6.0000 </r>
       <r>   -32.0707     0.0000     6.0000 </r>
       <r>   -31.8881     0.0000     6.0000 </r>
       <r>   -31.7056     0.0000     6.0000 </r>
       <r>   -31.5230     0.0000     6.0000 </r>
       <r>   -31.3405     0.0000     6.0000 </r>
       <r>   -31.1579     0.0000     6.0000 </r>
       <r>   -30.9754     0.0000     6.0000 </r>
       <r>   -30.7928     0.0000     6.0000 </r>
       <r>   -30.6103     0.0000     6.0000 </r>
       <r>   -30.4277     0.0000     6.0000 </r>
       <r>   -30.2452     0.0000     6.0000 </r>
       <r>   -30.0626     0.0000     6.0000 </r>
       <r>   -29.8801     0.0000     6.0000 </r>
       <r>   -29.6975     0.0000     6.0000 </r>
       <r>   -29.5150     0.0000     6.0000 </r>
       <r>   -29.3324     0.0000     6.0000 </r>
       <r>   -29.1498     0.0050     6.0009 </r>
       <r>   -28.9673     0.0000     8.0000 </r>
       <r>   -28.7847     0.0000     8.0000 </r>
       <r>   -28.6022     0.0000     8.0000 </r>
       <r>   -28.4196     0.0000     8.0000 </r>
       <r>   -28.2371     0.0000     8.0000 </r>
       <r>   -28.0545     0.0000     8.0000 </r>
       <r>   -27.8720     0.0000     8.0000 </r>
       <r>   -27.6894     0.0000     8.0000 </r>
       <r>   -27.5069     0.0000    10.0000 </r>
       <r>   -27.3243     0.0000    10.0000 </r>
       <r>   -27.1418     0.0000    10.0000 </r>
       <r>   -26.9592     0.0000    10.0000 </r>
       <r>   -26.7767    10.9558    12.0000 </r>
       <r>   -26.5941     6.9104    13.2615 </r>
       <r>   -26.4116     0.0000    14.0000 </r>
       <r>   -26.2290     0.0000    14.0000 </r>
       <r>   -26.0465     0.0000    18.0000 </r>
       <r>   -25.8639     0.0000    18.0000 </r>
       <r>   -25.6814     0.0000    18.0000 </r>
       <r>   -25.4988     0.0000    18.0000 </r>
       <r>   -25.3163     0.0000    18.0000 </r>
       <r>   -25.1337     0.0000    18.0000 </r>
       <r>   -24.9512     0.0000    18.0000 </r>
       <r>   -24.7686     0.0000    18.0000 </r>
       <r>   -24.5861     0.0000    18.0000 </r>
       <r>   -24.4035     0.0000    18.0000 </r>
       <r>   -24.2210     0.0000    18.0000 </r>
       <r>   -24.0384    10.9558    20.0000 </r>
       <r>   -23.8559     0.0000    20.0000 </r>
       <r>   -23.6733     0.0000    20.0000 </r>
       <r>   -23.4908     0.0000    20.0000 </r>
       <r>   -23.3082     0.0000    20.0000 </r>
       <r>   -23.1257     0.0000    20.0000 </r>
       <r>   -22.9431     0.0000    22.0000 </r>
       <r>   -22.7605     0.0000    22.0000 </r>
       <r>   -22.5780     8.0718    23.4735 </r>
       <r>   -22.3954    10.9558    26.0000 </r>
       <r>   -22.2129     1.9816    28.3618 </r>
       <r>   -22.0303    10.7133    31.9557 </r>
       <r>   -21.8478     0.0000    32.0000 </r>
       <r>   -21.6652     0.0000    32.0000 </r>
       <r>   -21.4827    10.9545    33.9998 </r>
       <r>   -21.3001     0.0000    34.0000 </r>
       <r>   -21.1176     8.5687    35.5642 </r>
       <r>   -20.9350     0.0000    36.0000 </r>
       <r>   -20.7525    10.9558    38.0000 </r>
       <r>   -20.5699     0.0000    38.0000 </r>
       <r>   -20.3874     0.0000    38.0000 </r>
       <r>   -20.2048     0.0000    38.0000 </r>
       <r>   -20.0223     0.0000    38.0000 </r>
       <r>   -19.8397     0.0000    38.0000 </r>
       <r>   -19.6572     0.0000    38.0000 </r>
       <r>   -19.4746     0.0000    40.0000 </r>
       <r>   -19.2921    10.9558    42.0000 </r>
       <r>   -19.1095     0.0000    42.0000 </r>
       <r>   -18.9270     0.0000    42.0000 </r>
       <r>   -18.7444     0.0000    42.0000 </r>
       <r>   -18.5619     0.0000    44.0000 </r>
       <r>   -18.3793    10.9558    46.0000 </r>
       <r>   -18.1968    10.9524    47.9994 </r>
       <r>   -18.0142     0.0580    48.0106 </r>
       <r>   -17.8317    10.2016    51.8623 </r>
       <r>   -17.6491     1.4053    52.2565 </r>
       <r>   -17.4666     0.0000    56.0000 </r>
       <r>   -17.2840    10.6600    57.9460 </r>
       <r>   -17.1015     0.0000    58.0000 </r>
       <r>   -16.9189     0.0000    58.0000 </r>
       <r>   -16.7363    10.9558    60.0000 </r>
       <r>   -16.5538     0.0000    62.0000 </r>
       <r>   -16.3712     0.0000    62.0000 </r>
       <r>   -16.1887     0.0000    62.0000 </r>
       <r>   -16.0061     0.0000    62.0000 </r>
       <r>   -15.8236    10.9558    64.0000 </r>
       <r>   -15.6410     0.0000    66.0000 </r>
       <r>   -15.4585     0.0131    66.0024 </r>
       <r>   -15.2759     9.5201    69.7379 </r>
       <r>   -15.0934     0.0000    70.0000 </r>
       <r>   -14.9108     0.0000    70.0000 </r>
       <r>   -14.7283    10.9554    73.9999 </r>
       <r>   -14.5457     0.0000    76.0000 </r>
       <r>   -14.3632     0.0000    78.0000 </r>
       <r>   -14.1806     0.0000    78.0000 </r>
       <r>   -13.9981    21.9116    84.0000 </r>
       <r>   -13.8155     0.0003    88.0000 </r>
       <r>   -13.6330     0.0000    90.0000 </r>
       <r>   -13.4504     0.0007    90.0001 </r>
       <r>   -13.2679    17.3282    97.1633 </r>
       <r>   -13.0853     0.0000   100.0000 </r>
       <r>   -12.9028    10.9558   104.0000 </r>
       <r>   -12.7202    10.9516   105.9992 </r>
       <r>   -12.5377     0.0000   108.0000 </r>
       <r>   -12.3551    10.9558   112.0000 </r>
       <r>   -12.1726    10.9642   116.0015 </r>
       <r>   -11.9900    10.9558   120.0000 </r>
       <r>   -11.8075     0.0000   120.0000 </r>
       <r>   -11.6249    10.9548   121.9998 </r>
       <r>   -11.4424     0.0022   122.0004 </r>
       <r>   -11.2598    10.7420   125.9610 </r>
       <r>   -11.0773    18.4086   131.3605 </r>
       <r>   -10.8947     0.0000   132.0000 </r>
       <r>   -10.7121    10.9558   136.0000 </r>
       <r>   -10.5296    10.9558   138.0000 </r>
       <r>   -10.3470     0.0000   140.0000 </r>
       <r>   -10.1645     0.0000   140.0000 </r>
       <r>    -9.9819    10.9606   142.0009 </r>
       <r>    -9.7994    10.9558   146.0000 </r>
       <r>    -9.6168    10.7761   151.9672 </r>
       <r>    -9.4343     1.9006   152.3470 </r>
       <r>    -9.2517     0.0000   154.0000 </r>
       <r>    -9.0692     0.0040   154.0007 </r>
       <r>    -8.8866     0.0000   156.0000 </r>
       <r>    -8.7041    10.9558   158.0000 </r>
       <r>    -8.5215     0.0000   158.0000 </r>
       <r>    -8.3390    10.9558   160.0000 </r>
       <r>    -8.1564     0.0000   160.0000 </r>
       <r>    -7.9739     0.0000   160.0000 </r>
       <r>    -7.7913     0.0000   160.0000 </r>
       <r>    -7.6088     0.0000   160.0000 </r>
       <r>    -7.4262     9.8789   161.8034 </r>
       <r>    -7.2437    10.9556   164.0000 </r>
       <r>    -7.0611    10.9558   166.0000 </r>
       <r>    -6.8786     0.0000   166.0000 </r>
       <r>    -6.6960     0.0000   166.0000 </r>
       <r>    -6.5135     0.0000   166.0000 </r>
       <r>    -6.3309     0.0000   166.0000 </r>
       <r>    -6.1484     0.0000   166.0000 </r>
       <r>    -5.9658     0.0000   166.0000 </r>
       <r>    -5.7833     0.0000   166.0000 </r>
       <r>    -5.6007    10.9319   167.9956 </r>
       <r>    -5.4182     0.0000   168.0000 </r>
       <r>    -5.2356    10.9558   170.0000 </r>
       <r>    -5.0531     0.0000   170.0000 </r>
       <r>    -4.8705     0.0000   172.0000 </r>
       <r>    -4.6879     0.0000   172.0000 </r>
       <r>    -4.5054     0.0000   172.0000 </r>
       <r>    -4.3228     9.1163   173.6642 </r>
       <r>    -4.1403    11.3206   176.0666 </r>
       <r>    -3.9577    10.9355   179.9963 </r>
       <r>    -3.7752     0.0000   182.0000 </r>
       <r>    -3.5926     0.0000   182.0000 </r>
       <r>    -3.4101     0.0000   184.0000 </r>
       <r>    -3.2275    10.9554   185.9999 </r>
       <r>    -3.0450    10.9558   188.0000 </r>
       <r>    -2.8624     0.0000   188.0000 </r>
       <r>    -2.6799    10.9558   192.0000 </r>
       <r>    -2.4973     0.0000   192.0000 </r>
       <r>    -2.3148     0.0000   192.0000 </r>
       <r>    -2.1322     0.0247   192.0045 </r>
       <r>    -1.9497     0.0000   194.0000 </r>
       <r>    -1.7671     0.0000   194.0000 </r>
       <r>    -1.5846     0.0000   196.0000 </r>
       <r>    -1.4020     0.0000   200.0000 </r>
       <r>    -1.2195    11.0234   202.0123 </r>
       <r>    -1.0369    11.0301   206.0136 </r>
       <r>    -0.8544     9.8103   209.7909 </r>
       <r>    -0.6718     1.6626   212.3035 </r>
       <r>    -0.4893    21.9123   220.0001 </r>
       <r>    -0.3067    10.9558   224.0000 </r>
       <r>    -0.1242     8.9340   227.6309 </r>
       <r>     0.0584    18.1916   233.3209 </r>
       <r>     0.2409    11.0934   238.0251 </r>
       <r>     0.4235    21.8876   245.9956 </r>
       <r>     0.6060    10.9561   250.0001 </r>
       <r>     0.7886     0.0000   256.0000 </r>
       <r>     0.9711     0.0000   256.0000 </r>
       <r>     1.1537     0.0000   256.0000 </r>
       <r>     1.3362     0.0000   256.0000 </r>
       <r>     1.5188     0.0000   256.0000 </r>
       <r>     1.7014     0.0000   256.0000 </r>
       <r>     1.8839     0.0000   256.0000 </r>
       <r>     2.0665     0.0000   256.0000 </r>
       <r>     2.2490     0.0000   256.0000 </r>
       <r>     2.4316     0.0000   256.0000 </r>
       <r>     2.6141     0.0000   256.0000 </r>
       <r>     2.7967     0.0000   256.0000 </r>
       <r>     2.9792     0.0000   256.0000 </r>
       <r>     3.1618     0.0000   256.0000 </r>
      </set>
     </set>
    </array>
   </total>
  </dos>
 </calculation>
 <structure name="finalpos" >
  <crystal>
   <varray name="basis" >
    <v>      20.00000000       0.00000000       0.00000000 </v>
    <v>       0.00000000      20.00000000       0.00000000 </v>
    <v>       0.00000000       0.00000000      20.00000000 </v>
   </varray>
   <i name="volume">   8000.00000000 </i>
   <varray name="rec_basis" >
    <v>       0.05000000       0.00000000       0.00000000 </v>
    <v>       0.00000000       0.05000000       0.00000000 </v>
    <v>       0.00000000       0.00000000       0.05000000 </v>
   </varray>
  </crystal>
  <varray name="positions" >
   <v>       0.36904589       0.57756069       0.65398228 </v>
   <v>       0.43793752       0.56561110       0.32757008 </v>
   <v>       0.45581208       0.52423376       0.38051465 </v>
   <v>       0.47372925       0.61530131       0.44986522 </v>
   <v>       0.45595175       0.65963312       0.39935201 </v>
   <v>       0.43785737       0.63472201       0.33675972 </v>
   <v>       0.52307882       0.32955005       0.67474498 </v>
   <v>       0.49710163       0.37190466       0.62618823 </v>
   <v>       0.60227374       0.41933300       0.60593616 </v>
   <v>       0.63096398       0.37761922       0.65422416 </v>
   <v>       0.73964927       0.52855915       0.53463181 </v>
   <v>       0.70082162       0.56612858       0.49044049 </v>
   <v>       0.63257913       0.55363620       0.48652424 </v>
   <v>       0.63952130       0.46927713       0.56732841 </v>
   <v>       0.70843899       0.47974495       0.57314689 </v>
   <v>       0.59134754       0.33224398       0.68903016 </v>
   <v>       0.36211554       0.48866484       0.56417415 </v>
   <v>       0.40790931       0.62211625       0.69058213 </v>
   <v>       0.47619960       0.62606623       0.67660612 </v>
   <v>       0.50295190       0.58590820       0.62668073 </v>
   <v>       0.39825425       0.53800137       0.60426081 </v>
   <v>       0.29334713       0.47671938       0.56830116 </v>
   <v>       0.37289802       0.40579857       0.48223443 </v>
   <v>       0.30486503       0.39173492       0.48443166 </v>
   <v>       0.26422003       0.42785518       0.52821594 </v>
   <v>       0.48989745       0.29510618       0.70074864 </v>
   <v>       0.61334240       0.29968355       0.72673159 </v>
   <v>       0.68424189       0.38076917       0.66478776 </v>
   <v>       0.54225374       0.36233861       0.46129841 </v>
   <v>       0.31579090       0.57306911       0.66420366 </v>
   <v>       0.44416348       0.37118871       0.61364770 </v>
   <v>       0.42392665       0.66833230       0.29622671 </v>
   <v>       0.45642762       0.71313270       0.40950260 </v>
   <v>       0.48809132       0.63358802       0.49907234 </v>
   <v>       0.56912778       0.41808713       0.41480476 </v>
   <v>       0.73767440       0.44963919       0.60776512 </v>
   <v>       0.72277620       0.60481012       0.45904817 </v>
   <v>       0.45570253       0.47012894       0.37468790 </v>
   <v>       0.40614333       0.37888556       0.44852541 </v>
   <v>       0.28443799       0.35306162       0.45202062 </v>
   <v>       0.79326502       0.53703787       0.53892527 </v>
   <v>       0.55589708       0.58769132       0.61440612 </v>
   <v>       0.42412006       0.54328620       0.27986105 </v>
   <v>       0.50894741       0.65984570       0.70400156 </v>
   <v>       0.26265982       0.50568523       0.60265428 </v>
   <v>       0.21072272       0.41813760       0.53105039 </v>
   <v>       0.60090654       0.58197914       0.45254259 </v>
   <v>       0.38544357       0.65296704       0.72941133 </v>
   <v>       0.47424490       0.54794204       0.44140236 </v>
   <v>       0.40180479       0.45306079       0.52108436 </v>
   <v>       0.53520702       0.41608490       0.59173240 </v>
   <v>       0.46544808       0.54254992       0.59041194 </v>
   <v>       0.60138410       0.50650621       0.52397638 </v>
   <v>       0.53073984       0.40562607       0.44215451 </v>
   <v>       0.50088568       0.48087016       0.51934246 </v>
  </varray>
  <varray name="selective"  type="logical" >
   <v type="logical" >  T  T  T </v>
   <v type="logical" >  T  T  T </v>
   <v type="logical" >  T  T  T </v>
   <v type="logical" >  T  T  T </v>
   <v type="logical" >  T  T  T </v>
   <v type="logical" >  T  T  T </v>
   <v type="logical" >  T  T  T </v>
   <v type="logical" >  T  T  T </v>
   <v type="logical" >  T  T  T </v>
   <v type="logical" >  T  T  T </v>
   <v type="logical" >  T  T  T </v>
   <v type="logical" >  T  T  T </v>
   <v type="logical" >  T  T  T </v>
   <v type="logical" >  T  T  T </v>
   <v type="logical" >  T  T  T </v>
   <v type="logical" >  T  T  T </v>
   <v type="logical" >  T  T  T </v>
   <v type="logical" >  T  T  T </v>
   <v type="logical" >  T  T  T </v>
   <v type="logical" >  T  T  T </v>
   <v type="logical" >  T  T  T </v>
   <v type="logical" >  T  T  T </v>
   <v type="logical" >  T  T  T </v>
   <v type="logical" >  T  T  T </v>
   <v type="logical" >  T  T  T </v>
   <v type="logical" >  T  T  T </v>
   <v type="logical" >  T  T  T </v>
   <v type="logical" >  T  T  T </v>
   <v type="logical" >  T  T  T </v>
   <v type="logical" >  T  T  T </v>
   <v type="logical" >  T  T  T </v>
   <v type="logical" >  T  T  T </v>
   <v type="logical" >  T  T  T </v>
   <v type="logical" >  T  T  T </v>
   <v type="logical" >  T  T  T </v>
   <v type="logical" >  T  T  T </v>
   <v type="logical" >  T  T  T </v>
   <v type="logical" >  T  T  T </v>
   <v type="logical" >  T  T  T </v>
   <v type="logical" >  T  T  T </v>
   <v type="logical" >  T  T  T </v>
   <v type="logical" >  T  T  T </v>
   <v type="logical" >  T  T  T </v>
   <v type="logical" >  T  T  T </v>
   <v type="logical" >  T  T  T </v>
   <v type="logical" >  T  T  T </v>
   <v type="logical" >  T  T  T </v>
   <v type="logical" >  T  T  T </v>
   <v type="logical" >  T  T  T </v>
   <v type="logical" >  T  T  T </v>
   <v type="logical" >  T  T  T </v>
   <v type="logical" >  T  T  T </v>
   <v type="logical" >  T  T  T </v>
   <v type="logical" >  T  T  T </v>
   <v type="logical" >  T  T  T </v>
  </varray>
  <nose>
   <v>      -3.00000000       0.00000000       0.00010000       0.00010000 </v>
  </nose>
 </structure>
</modeling>
