  55  55   0   0
  0.1454545E+03  0.2000000E-08  0.2000000E-08  0.2000000E-08  0.5000000E-15
  1.000000000000000E-004
  CAR 
 c2_oh2_ruthenium_mol                    
      3.20133823    -51.42601496  301     -6.90472211      1.00000000
    -51.426  0.0000E+00  0.0000E+00  0.0000E+00  0.0000E+00
    -51.244  0.0000E+00  0.0000E+00  0.0000E+00  0.0000E+00
    -51.062  0.0000E+00  0.0000E+00  0.0000E+00  0.0000E+00
    -50.880  0.0000E+00  0.0000E+00  0.0000E+00  0.0000E+00
    -50.698  0.0000E+00  0.0000E+00  0.0000E+00  0.0000E+00
    -50.516  0.0000E+00  0.0000E+00  0.0000E+00  0.0000E+00
    -50.333  0.0000E+00  0.0000E+00  0.0000E+00  0.0000E+00
    -50.151  0.0000E+00  0.0000E+00  0.0000E+00  0.0000E+00
    -49.969  0.0000E+00  0.0000E+00  0.0000E+00  0.0000E+00
    -49.787  0.0000E+00  0.0000E+00  0.0000E+00  0.0000E+00
    -49.605  0.0000E+00  0.0000E+00  0.0000E+00  0.0000E+00
    -49.423  0.0000E+00  0.0000E+00  0.0000E+00  0.0000E+00
    -49.241  0.0000E+00  0.0000E+00  0.0000E+00  0.0000E+00
    -49.059  0.0000E+00  0.0000E+00  0.0000E+00  0.0000E+00
    -48.877  0.1098E+02  0.1098E+02  0.2000E+01  0.2000E+01
    -48.695  0.0000E+00  0.0000E+00  0.4000E+01  0.4000E+01
    -48.513  0.1098E+02  0.1098E+02  0.6000E+01  0.6000E+01
    -48.330  0.0000E+00  0.0000E+00  0.6000E+01  0.6000E+01
    -48.148  0.0000E+00  0.0000E+00  0.6000E+01  0.6000E+01
    -47.966  0.0000E+00  0.0000E+00  0.6000E+01  0.6000E+01
    -47.784  0.0000E+00  0.0000E+00  0.6000E+01  0.6000E+01
    -47.602  0.0000E+00  0.0000E+00  0.6000E+01  0.6000E+01
    -47.420  0.0000E+00  0.0000E+00  0.6000E+01  0.6000E+01
    -47.238  0.0000E+00  0.0000E+00  0.6000E+01  0.6000E+01
    -47.056  0.0000E+00  0.0000E+00  0.6000E+01  0.6000E+01
    -46.874  0.0000E+00  0.0000E+00  0.6000E+01  0.6000E+01
    -46.692  0.0000E+00  0.0000E+00  0.6000E+01  0.6000E+01
    -46.510  0.0000E+00  0.0000E+00  0.6000E+01  0.6000E+01
    -46.327  0.0000E+00  0.0000E+00  0.6000E+01  0.6000E+01
    -46.145  0.0000E+00  0.0000E+00  0.6000E+01  0.6000E+01
    -45.963  0.0000E+00  0.0000E+00  0.6000E+01  0.6000E+01
    -45.781  0.0000E+00  0.0000E+00  0.6000E+01  0.6000E+01
    -45.599  0.0000E+00  0.0000E+00  0.6000E+01  0.6000E+01
    -45.417  0.0000E+00  0.0000E+00  0.6000E+01  0.6000E+01
    -45.235  0.0000E+00  0.0000E+00  0.6000E+01  0.6000E+01
    -45.053  0.0000E+00  0.0000E+00  0.6000E+01  0.6000E+01
    -44.871  0.0000E+00  0.0000E+00  0.6000E+01  0.6000E+01
    -44.689  0.0000E+00  0.0000E+00  0.6000E+01  0.6000E+01
    -44.507  0.0000E+00  0.0000E+00  0.6000E+01  0.6000E+01
    -44.324  0.0000E+00  0.0000E+00  0.6000E+01  0.6000E+01
    -44.142  0.0000E+00  0.0000E+00  0.6000E+01  0.6000E+01
    -43.960  0.0000E+00  0.0000E+00  0.6000E+01  0.6000E+01
    -43.778  0.0000E+00  0.0000E+00  0.6000E+01  0.6000E+01
    -43.596  0.0000E+00  0.0000E+00  0.6000E+01  0.6000E+01
    -43.414  0.0000E+00  0.0000E+00  0.6000E+01  0.6000E+01
    -43.232  0.0000E+00  0.0000E+00  0.6000E+01  0.6000E+01
    -43.050  0.0000E+00  0.0000E+00  0.6000E+01  0.6000E+01
    -42.868  0.0000E+00  0.0000E+00  0.6000E+01  0.6000E+01
    -42.686  0.0000E+00  0.0000E+00  0.6000E+01  0.6000E+01
    -42.504  0.0000E+00  0.0000E+00  0.6000E+01  0.6000E+01
    -42.321  0.0000E+00  0.0000E+00  0.6000E+01  0.6000E+01
    -42.139  0.0000E+00  0.0000E+00  0.6000E+01  0.6000E+01
    -41.957  0.0000E+00  0.0000E+00  0.6000E+01  0.6000E+01
    -41.775  0.0000E+00  0.0000E+00  0.6000E+01  0.6000E+01
    -41.593  0.0000E+00  0.0000E+00  0.6000E+01  0.6000E+01
    -41.411  0.0000E+00  0.0000E+00  0.6000E+01  0.6000E+01
    -41.229  0.0000E+00  0.0000E+00  0.6000E+01  0.6000E+01
    -41.047  0.0000E+00  0.0000E+00  0.6000E+01  0.6000E+01
    -40.865  0.0000E+00  0.0000E+00  0.6000E+01  0.6000E+01
    -40.683  0.0000E+00  0.0000E+00  0.6000E+01  0.6000E+01
    -40.501  0.0000E+00  0.0000E+00  0.6000E+01  0.6000E+01
    -40.318  0.0000E+00  0.0000E+00  0.6000E+01  0.6000E+01
    -40.136  0.0000E+00  0.0000E+00  0.6000E+01  0.6000E+01
    -39.954  0.0000E+00  0.0000E+00  0.6000E+01  0.6000E+01
    -39.772  0.0000E+00  0.0000E+00  0.6000E+01  0.6000E+01
    -39.590  0.0000E+00  0.0000E+00  0.6000E+01  0.6000E+01
    -39.408  0.0000E+00  0.0000E+00  0.6000E+01  0.6000E+01
    -39.226  0.0000E+00  0.0000E+00  0.6000E+01  0.6000E+01
    -39.044  0.0000E+00  0.0000E+00  0.6000E+01  0.6000E+01
    -38.862  0.0000E+00  0.0000E+00  0.6000E+01  0.6000E+01
    -38.680  0.0000E+00  0.0000E+00  0.6000E+01  0.6000E+01
    -38.498  0.0000E+00  0.0000E+00  0.6000E+01  0.6000E+01
    -38.315  0.0000E+00  0.0000E+00  0.6000E+01  0.6000E+01
    -38.133  0.0000E+00  0.0000E+00  0.6000E+01  0.6000E+01
    -37.951  0.0000E+00  0.0000E+00  0.6000E+01  0.6000E+01
    -37.769  0.0000E+00  0.0000E+00  0.6000E+01  0.6000E+01
    -37.587  0.0000E+00  0.0000E+00  0.6000E+01  0.6000E+01
    -37.405  0.0000E+00  0.0000E+00  0.6000E+01  0.6000E+01
    -37.223  0.0000E+00  0.0000E+00  0.6000E+01  0.6000E+01
    -37.041  0.0000E+00  0.0000E+00  0.6000E+01  0.6000E+01
    -36.859  0.0000E+00  0.0000E+00  0.6000E+01  0.6000E+01
    -36.677  0.0000E+00  0.0000E+00  0.6000E+01  0.6000E+01
    -36.495  0.0000E+00  0.0000E+00  0.6000E+01  0.6000E+01
    -36.312  0.0000E+00  0.0000E+00  0.6000E+01  0.6000E+01
    -36.130  0.0000E+00  0.0000E+00  0.6000E+01  0.6000E+01
    -35.948  0.0000E+00  0.0000E+00  0.6000E+01  0.6000E+01
    -35.766  0.0000E+00  0.0000E+00  0.6000E+01  0.6000E+01
    -35.584  0.0000E+00  0.0000E+00  0.6000E+01  0.6000E+01
    -35.402  0.0000E+00  0.0000E+00  0.6000E+01  0.6000E+01
    -35.220  0.0000E+00  0.0000E+00  0.6000E+01  0.6000E+01
    -35.038  0.0000E+00  0.0000E+00  0.6000E+01  0.6000E+01
    -34.856  0.0000E+00  0.0000E+00  0.6000E+01  0.6000E+01
    -34.674  0.0000E+00  0.0000E+00  0.6000E+01  0.6000E+01
    -34.492  0.0000E+00  0.0000E+00  0.6000E+01  0.6000E+01
    -34.309  0.0000E+00  0.0000E+00  0.6000E+01  0.6000E+01
    -34.127  0.0000E+00  0.0000E+00  0.6000E+01  0.6000E+01
    -33.945  0.0000E+00  0.0000E+00  0.6000E+01  0.6000E+01
    -33.763  0.0000E+00  0.0000E+00  0.6000E+01  0.6000E+01
    -33.581  0.0000E+00  0.0000E+00  0.6000E+01  0.6000E+01
    -33.399  0.0000E+00  0.0000E+00  0.6000E+01  0.6000E+01
    -33.217  0.0000E+00  0.0000E+00  0.6000E+01  0.6000E+01
    -33.035  0.0000E+00  0.0000E+00  0.6000E+01  0.6000E+01
    -32.853  0.0000E+00  0.0000E+00  0.6000E+01  0.6000E+01
    -32.671  0.0000E+00  0.0000E+00  0.6000E+01  0.6000E+01
    -32.489  0.0000E+00  0.0000E+00  0.6000E+01  0.6000E+01
    -32.306  0.0000E+00  0.0000E+00  0.6000E+01  0.6000E+01
    -32.124  0.0000E+00  0.0000E+00  0.6000E+01  0.6000E+01
    -31.942  0.0000E+00  0.0000E+00  0.6000E+01  0.6000E+01
    -31.760  0.0000E+00  0.0000E+00  0.6000E+01  0.6000E+01
    -31.578  0.0000E+00  0.0000E+00  0.6000E+01  0.6000E+01
    -31.396  0.0000E+00  0.0000E+00  0.6000E+01  0.6000E+01
    -31.214  0.0000E+00  0.0000E+00  0.6000E+01  0.6000E+01
    -31.032  0.0000E+00  0.0000E+00  0.6000E+01  0.6000E+01
    -30.850  0.0000E+00  0.0000E+00  0.6000E+01  0.6000E+01
    -30.668  0.0000E+00  0.0000E+00  0.6000E+01  0.6000E+01
    -30.486  0.0000E+00  0.0000E+00  0.6000E+01  0.6000E+01
    -30.303  0.0000E+00  0.0000E+00  0.6000E+01  0.6000E+01
    -30.121  0.0000E+00  0.0000E+00  0.6000E+01  0.6000E+01
    -29.939  0.0000E+00  0.0000E+00  0.6000E+01  0.6000E+01
    -29.757  0.0000E+00  0.0000E+00  0.6000E+01  0.6000E+01
    -29.575  0.0000E+00  0.0000E+00  0.6000E+01  0.6000E+01
    -29.393  0.0000E+00  0.0000E+00  0.6000E+01  0.6000E+01
    -29.211  0.0000E+00  0.0000E+00  0.6000E+01  0.6000E+01
    -29.029  0.0000E+00  0.0000E+00  0.8000E+01  0.8000E+01
    -28.847  0.0000E+00  0.0000E+00  0.8000E+01  0.8000E+01
    -28.665  0.0000E+00  0.0000E+00  0.8000E+01  0.8000E+01
    -28.483  0.0000E+00  0.0000E+00  0.8000E+01  0.8000E+01
    -28.300  0.0000E+00  0.0000E+00  0.8000E+01  0.8000E+01
    -28.118  0.0000E+00  0.0000E+00  0.8000E+01  0.8000E+01
    -27.936  0.0000E+00  0.0000E+00  0.8000E+01  0.8000E+01
    -27.754  0.0000E+00  0.0000E+00  0.8000E+01  0.8000E+01
    -27.572  0.0000E+00  0.0000E+00  0.8000E+01  0.8000E+01
    -27.390  0.0000E+00  0.0000E+00  0.8000E+01  0.8000E+01
    -27.208  0.0000E+00  0.0000E+00  0.1000E+02  0.1000E+02
    -27.026  0.0000E+00  0.0000E+00  0.1000E+02  0.1000E+02
    -26.844  0.9831E+01  0.9831E+01  0.1179E+02  0.1179E+02
    -26.662  0.1098E+02  0.1098E+02  0.1400E+02  0.1400E+02
    -26.480  0.0000E+00  0.0000E+00  0.1400E+02  0.1400E+02
    -26.297  0.0000E+00  0.0000E+00  0.1400E+02  0.1400E+02
    -26.115  0.4660E+01  0.4660E+01  0.1485E+02  0.1485E+02
    -25.933  0.0000E+00  0.0000E+00  0.1800E+02  0.1800E+02
    -25.751  0.0000E+00  0.0000E+00  0.1800E+02  0.1800E+02
    -25.569  0.0000E+00  0.0000E+00  0.1800E+02  0.1800E+02
    -25.387  0.0000E+00  0.0000E+00  0.1800E+02  0.1800E+02
    -25.205  0.0000E+00  0.0000E+00  0.1800E+02  0.1800E+02
    -25.023  0.0000E+00  0.0000E+00  0.1800E+02  0.1800E+02
    -24.841  0.0000E+00  0.0000E+00  0.1800E+02  0.1800E+02
    -24.659  0.0000E+00  0.0000E+00  0.1800E+02  0.1800E+02
    -24.477  0.0000E+00  0.0000E+00  0.1800E+02  0.1800E+02
    -24.294  0.0000E+00  0.0000E+00  0.1800E+02  0.1800E+02
    -24.112  0.0000E+00  0.0000E+00  0.1800E+02  0.1800E+02
    -23.930  0.0000E+00  0.0000E+00  0.2000E+02  0.2000E+02
    -23.748  0.0000E+00  0.0000E+00  0.2000E+02  0.2000E+02
    -23.566  0.0000E+00  0.0000E+00  0.2000E+02  0.2000E+02
    -23.384  0.0000E+00  0.0000E+00  0.2000E+02  0.2000E+02
    -23.202  0.0000E+00  0.0000E+00  0.2000E+02  0.2000E+02
    -23.020  0.0000E+00  0.0000E+00  0.2000E+02  0.2000E+02
    -22.838  0.0000E+00  0.0000E+00  0.2000E+02  0.2000E+02
    -22.656  0.0000E+00  0.0000E+00  0.2000E+02  0.2000E+02
    -22.474  0.1098E+02  0.1098E+02  0.2200E+02  0.2200E+02
    -22.291  0.1170E+02  0.1170E+02  0.2613E+02  0.2613E+02
    -22.109  0.2184E+02  0.2184E+02  0.3398E+02  0.3398E+02
    -21.927  0.0000E+00  0.0000E+00  0.3400E+02  0.3400E+02
    -21.745  0.0000E+00  0.0000E+00  0.3400E+02  0.3400E+02
    -21.563  0.0000E+00  0.0000E+00  0.3400E+02  0.3400E+02
    -21.381  0.0000E+00  0.0000E+00  0.3400E+02  0.3400E+02
    -21.199  0.0000E+00  0.0000E+00  0.3400E+02  0.3400E+02
    -21.017  0.0000E+00  0.0000E+00  0.3400E+02  0.3400E+02
    -20.835  0.0000E+00  0.0000E+00  0.3400E+02  0.3400E+02
    -20.653  0.1098E+02  0.1098E+02  0.3800E+02  0.3800E+02
    -20.471  0.0000E+00  0.0000E+00  0.3800E+02  0.3800E+02
    -20.288  0.0000E+00  0.0000E+00  0.3800E+02  0.3800E+02
    -20.106  0.0000E+00  0.0000E+00  0.3800E+02  0.3800E+02
    -19.924  0.0000E+00  0.0000E+00  0.3800E+02  0.3800E+02
    -19.742  0.0000E+00  0.0000E+00  0.3800E+02  0.3800E+02
    -19.560  0.0000E+00  0.0000E+00  0.3800E+02  0.3800E+02
    -19.378  0.0000E+00  0.0000E+00  0.3800E+02  0.3800E+02
    -19.196  0.0000E+00  0.0000E+00  0.4000E+02  0.4000E+02
    -19.014  0.0000E+00  0.0000E+00  0.4200E+02  0.4200E+02
    -18.832  0.0000E+00  0.0000E+00  0.4200E+02  0.4200E+02
    -18.650  0.1278E+02  0.1278E+02  0.4433E+02  0.4433E+02
    -18.468  0.4878E-14  0.4878E-14  0.4600E+02  0.4600E+02
    -18.285  0.0000E+00  0.0000E+00  0.5000E+02  0.5000E+02
    -18.103  0.0000E+00  0.0000E+00  0.5000E+02  0.5000E+02
    -17.921  0.0000E+00  0.0000E+00  0.5000E+02  0.5000E+02
    -17.739  0.0000E+00  0.0000E+00  0.5000E+02  0.5000E+02
    -17.557  0.1103E+02  0.1103E+02  0.5201E+02  0.5201E+02
    -17.375  0.0000E+00  0.0000E+00  0.5400E+02  0.5400E+02
    -17.193  0.2197E+02  0.2197E+02  0.5800E+02  0.5800E+02
    -17.011  0.0000E+00  0.0000E+00  0.5800E+02  0.5800E+02
    -16.829  0.6415E+01  0.6415E+01  0.5917E+02  0.5917E+02
    -16.647  0.1781E-07  0.1781E-07  0.6000E+02  0.6000E+02
    -16.465  0.0000E+00  0.0000E+00  0.6200E+02  0.6200E+02
    -16.282  0.0000E+00  0.0000E+00  0.6200E+02  0.6200E+02
    -16.100  0.0000E+00  0.0000E+00  0.6200E+02  0.6200E+02
    -15.918  0.7523E-01  0.7523E-01  0.6201E+02  0.6201E+02
    -15.736  0.5003E-10  0.5003E-10  0.6400E+02  0.6400E+02
    -15.554  0.1098E+02  0.1098E+02  0.6800E+02  0.6800E+02
    -15.372  0.0000E+00  0.0000E+00  0.6800E+02  0.6800E+02
    -15.190  0.0000E+00  0.0000E+00  0.6800E+02  0.6800E+02
    -15.008  0.6768E-13  0.6768E-13  0.6800E+02  0.6800E+02
    -14.826  0.0000E+00  0.0000E+00  0.7000E+02  0.7000E+02
    -14.644  0.2197E+02  0.2197E+02  0.7600E+02  0.7600E+02
    -14.462  0.0000E+00  0.0000E+00  0.7800E+02  0.7800E+02
    -14.279  0.0000E+00  0.0000E+00  0.7800E+02  0.7800E+02
    -14.097  0.4878E-14  0.4878E-14  0.7800E+02  0.7800E+02
    -13.915  0.1884E+02  0.1884E+02  0.8343E+02  0.8343E+02
    -13.733  0.2267E+02  0.2267E+02  0.8813E+02  0.8813E+02
    -13.551  0.1492E+00  0.1492E+00  0.9203E+02  0.9203E+02
    -13.369  0.2438E-01  0.2438E-01  0.9400E+02  0.9400E+02
    -13.187  0.3951E+01  0.3951E+01  0.9672E+02  0.9672E+02
    -13.005  0.8580E-10  0.8581E-10  0.1000E+03  0.1000E+03
    -12.823  0.1097E+02  0.1097E+02  0.1040E+03  0.1040E+03
    -12.641  0.1098E+02  0.1098E+02  0.1080E+03  0.1080E+03
    -12.459  0.1098E+02  0.1098E+02  0.1100E+03  0.1100E+03
    -12.276  0.1098E+02  0.1098E+02  0.1140E+03  0.1140E+03
    -12.094  0.2532E+01  0.2532E+01  0.1165E+03  0.1165E+03
    -11.912  0.0000E+00  0.0000E+00  0.1200E+03  0.1200E+03
    -11.730  0.0000E+00  0.0000E+00  0.1200E+03  0.1200E+03
    -11.548  0.0000E+00  0.0000E+00  0.1200E+03  0.1200E+03
    -11.366  0.1098E+02  0.1098E+02  0.1220E+03  0.1220E+03
    -11.184  0.1096E+02  0.1096E+02  0.1260E+03  0.1260E+03
    -11.002  0.3236E+02  0.3236E+02  0.1339E+03  0.1339E+03
    -10.820  0.0000E+00  0.0000E+00  0.1340E+03  0.1340E+03
    -10.638  0.3289E+01  0.3289E+01  0.1346E+03  0.1346E+03
    -10.456  0.3049E-14  0.3049E-14  0.1360E+03  0.1360E+03
    -10.273  0.0000E+00  0.0000E+00  0.1380E+03  0.1380E+03
    -10.091  0.1057E+02  0.1057E+02  0.1399E+03  0.1399E+03
     -9.909  0.4256E-04  0.4256E-04  0.1420E+03  0.1420E+03
     -9.727  0.2255E+02  0.2255E+02  0.1481E+03  0.1481E+03
     -9.545  0.0000E+00  0.0000E+00  0.1540E+03  0.1540E+03
     -9.363  0.0000E+00  0.0000E+00  0.1560E+03  0.1560E+03
     -9.181  0.0000E+00  0.0000E+00  0.1560E+03  0.1560E+03
     -8.999  0.0000E+00  0.0000E+00  0.1560E+03  0.1560E+03
     -8.817  0.0000E+00  0.0000E+00  0.1560E+03  0.1560E+03
     -8.635  0.0000E+00  0.0000E+00  0.1560E+03  0.1560E+03
     -8.452  0.0000E+00  0.0000E+00  0.1560E+03  0.1560E+03
     -8.270  0.1098E+02  0.1098E+02  0.1600E+03  0.1600E+03
     -8.088  0.0000E+00  0.0000E+00  0.1600E+03  0.1600E+03
     -7.906  0.0000E+00  0.0000E+00  0.1600E+03  0.1600E+03
     -7.724  0.0000E+00  0.0000E+00  0.1600E+03  0.1600E+03
     -7.542  0.0000E+00  0.0000E+00  0.1600E+03  0.1600E+03
     -7.360  0.7038E-11  0.7041E-11  0.1600E+03  0.1600E+03
     -7.178  0.3337E-05  0.3338E-05  0.1620E+03  0.1620E+03
     -6.996  0.1085E+02  0.1085E+02  0.1660E+03  0.1660E+03
     -6.814  0.0000E+00  0.0000E+00  0.1660E+03  0.1660E+03
     -6.632  0.0000E+00  0.0000E+00  0.1660E+03  0.1660E+03
     -6.449  0.0000E+00  0.0000E+00  0.1660E+03  0.1660E+03
     -6.267  0.0000E+00  0.0000E+00  0.1660E+03  0.1660E+03
     -6.085  0.0000E+00  0.0000E+00  0.1660E+03  0.1660E+03
     -5.903  0.0000E+00  0.0000E+00  0.1660E+03  0.1660E+03
     -5.721  0.0000E+00  0.0000E+00  0.1660E+03  0.1660E+03
     -5.539  0.0000E+00  0.0000E+00  0.1660E+03  0.1660E+03
     -5.357  0.0000E+00  0.0000E+00  0.1660E+03  0.1660E+03
     -5.175  0.0000E+00  0.0000E+00  0.1680E+03  0.1680E+03
     -4.993  0.6638E+01  0.6638E+01  0.1692E+03  0.1692E+03
     -4.811  0.1098E+02  0.1098E+02  0.1740E+03  0.1740E+03
     -4.629  0.0000E+00  0.0000E+00  0.1740E+03  0.1740E+03
     -4.446  0.0000E+00  0.0000E+00  0.1740E+03  0.1740E+03
     -4.264  0.2695E-08  0.2695E-08  0.1740E+03  0.1740E+03
     -4.082  0.5702E-10  0.5702E-10  0.1760E+03  0.1760E+03
     -3.900  0.1109E+02  0.1109E+02  0.1800E+03  0.1800E+03
     -3.718  0.8576E+01  0.8576E+01  0.1836E+03  0.1836E+03
     -3.536  0.0000E+00  0.0000E+00  0.1840E+03  0.1840E+03
     -3.354  0.0000E+00  0.0000E+00  0.1840E+03  0.1840E+03
     -3.172  0.0000E+00  0.0000E+00  0.1840E+03  0.1840E+03
     -2.990  0.0000E+00  0.0000E+00  0.1860E+03  0.1860E+03
     -2.808  0.1018E+02  0.1018E+02  0.1879E+03  0.1879E+03
     -2.626  0.9036E+01  0.9036E+01  0.1916E+03  0.1916E+03
     -2.443  0.0000E+00  0.0000E+00  0.1920E+03  0.1920E+03
     -2.261  0.0000E+00  0.0000E+00  0.1920E+03  0.1920E+03
     -2.079  0.4121E-06  0.4114E-06  0.1920E+03  0.1920E+03
     -1.897  0.0000E+00  0.0000E+00  0.1940E+03  0.1940E+03
     -1.715  0.0000E+00  0.0000E+00  0.1940E+03  0.1940E+03
     -1.533  0.1032E+02  0.1032E+02  0.1979E+03  0.1979E+03
     -1.351  0.0000E+00  0.0000E+00  0.2000E+03  0.2000E+03
     -1.169  0.2196E+02  0.2196E+02  0.2040E+03  0.2040E+03
     -0.987  0.2984E-02  0.2977E-02  0.2060E+03  0.2060E+03
     -0.805  0.2197E+02  0.2197E+02  0.2120E+03  0.2120E+03
     -0.623  0.1098E+02  0.1098E+02  0.2160E+03  0.2160E+03
     -0.440  0.2272E-04  0.2272E-04  0.2180E+03  0.2180E+03
     -0.258  0.1098E+02  0.1098E+02  0.2260E+03  0.2260E+03
     -0.076  0.2006E+02  0.2006E+02  0.2317E+03  0.2317E+03
      0.106  0.4029E+00  0.4025E+00  0.2341E+03  0.2341E+03
      0.288  0.1098E+02  0.1098E+02  0.2380E+03  0.2380E+03
      0.470  0.1334E+02  0.1334E+02  0.2424E+03  0.2424E+03
      0.652  0.1421E+02  0.1421E+02  0.2506E+03  0.2506E+03
      0.834  0.0000E+00  0.0000E+00  0.2560E+03  0.2560E+03
      1.016  0.0000E+00  0.0000E+00  0.2560E+03  0.2560E+03
      1.198  0.0000E+00  0.0000E+00  0.2560E+03  0.2560E+03
      1.380  0.0000E+00  0.0000E+00  0.2560E+03  0.2560E+03
      1.563  0.0000E+00  0.0000E+00  0.2560E+03  0.2560E+03
      1.745  0.0000E+00  0.0000E+00  0.2560E+03  0.2560E+03
      1.927  0.0000E+00  0.0000E+00  0.2560E+03  0.2560E+03
      2.109  0.0000E+00  0.0000E+00  0.2560E+03  0.2560E+03
      2.291  0.0000E+00  0.0000E+00  0.2560E+03  0.2560E+03
      2.473  0.0000E+00  0.0000E+00  0.2560E+03  0.2560E+03
      2.655  0.0000E+00  0.0000E+00  0.2560E+03  0.2560E+03
      2.837  0.0000E+00  0.0000E+00  0.2560E+03  0.2560E+03
      3.019  0.0000E+00  0.0000E+00  0.2560E+03  0.2560E+03
      3.201  0.0000E+00  0.0000E+00  0.2560E+03  0.2560E+03
