   55   55    1    2
  0.1454545E+03  0.2000000E-08  0.2000000E-08  0.2000000E-08  0.5000000E-15
  1.000000000000000E-004
  CAR 
 c2_oh2_ruthenium_mol                    
    166      1    128
 
  0.0000000E+00  0.0000000E+00  0.0000000E+00  0.1000000E+01
    1      -48.942953    -48.942953
    2      -48.824112    -48.824112
    3      -48.586854    -48.586854
    4      -29.129465    -29.129465
    5      -27.311035    -27.311035
    6      -26.852573    -26.852573
    7      -26.714511    -26.714511
    8      -26.113991    -26.113991
    9      -26.056810    -26.056810
   10      -24.014686    -24.014686
   11      -22.501174    -22.501174
   12      -22.408814    -22.408814
   13      -22.345809    -22.345809
   14      -22.280750    -22.280750
   15      -22.236296    -22.236296
   16      -22.161460    -22.161460
   17      -22.125428    -22.125428
   18      -20.758966    -20.758966
   19      -20.726381    -20.726381
   20      -19.289555    -19.289555
   21      -19.105257    -19.105257
   22      -18.693421    -18.693421
   23      -18.642672    -18.642672
   24      -18.410682    -18.410682
   25      -18.377956    -18.377956
   26      -17.574216    -17.574216
   27      -17.541094    -17.541094
   28      -17.266411    -17.266411
   29      -17.227139    -17.227139
   30      -16.830193    -16.830193
   31      -16.604748    -16.604748
   32      -15.900805    -15.900805
   33      -15.687920    -15.687920
   34      -15.590952    -15.590952
   35      -14.953245    -14.953245
   36      -14.726780    -14.726780
   37      -14.694661    -14.694661
   38      -14.670699    -14.670699
   39      -14.608420    -14.608420
   40      -14.040515    -14.040515
   41      -13.971480    -13.971480
   42      -13.919247    -13.919247
   43      -13.795492    -13.795491
   44      -13.764746    -13.764746
   45      -13.722374    -13.722374
   46      -13.638778    -13.638778
   47      -13.535429    -13.535429
   48      -13.348841    -13.348841
   49      -13.184328    -13.184328
   50      -13.088096    -13.088096
   51      -12.957104    -12.957104
   52      -12.843863    -12.843863
   53      -12.740839    -12.740839
   54      -12.716036    -12.716036
   55      -12.524186    -12.524186
   56      -12.404773    -12.404773
   57      -12.330930    -12.330930
   58      -12.196185    -12.196185
   59      -12.089109    -12.089109
   60      -12.051063    -12.051063
   61      -11.420930    -11.420930
   62      -11.296035    -11.296035
   63      -11.203930    -11.203930
   64      -11.094634    -11.094634
   65      -11.048256    -11.048256
   66      -11.028937    -11.028937
   67      -11.013151    -11.013151
   68      -10.633873    -10.633873
   69      -10.398199    -10.398199
   70      -10.103412    -10.103412
   71      -10.073534    -10.073534
   72       -9.877605     -9.877605
   73       -9.789067     -9.789067
   74       -9.759993     -9.759994
   75       -9.715706     -9.715706
   76       -9.682396     -9.682396
   77       -9.642445     -9.642445
   78       -9.458329     -9.458329
   79       -8.358274     -8.358274
   80       -8.311024     -8.311024
   81       -7.309772     -7.309772
   82       -7.142583     -7.142583
   83       -7.011707     -7.011707
   84       -5.295098     -5.295098
   85       -4.994636     -4.994636
   86       -4.954033     -4.954033
   87       -4.859100     -4.859100
   88       -4.220404     -4.220404
   89       -4.034218     -4.034218
   90       -3.942270     -3.942270
   91       -3.883644     -3.883644
   92       -3.723607     -3.723607
   93       -3.089623     -3.089623
   94       -2.817943     -2.817941
   95       -2.735782     -2.735782
   96       -2.632124     -2.632124
   97       -2.041273     -2.041271
   98       -1.646110     -1.646106
   99       -1.544015     -1.544011
  100       -1.453804     -1.453801
  101       -1.233487     -1.233486
  102       -1.190906     -1.190904
  103       -1.124247     -1.124242
  104       -0.962304     -0.962300
  105       -0.862586     -0.862580
  106       -0.843441     -0.843437
  107       -0.752837     -0.752831
  108       -0.685394     -0.685391
  109       -0.559532     -0.559529
  110       -0.407928     -0.407928
  111       -0.387704     -0.387702
  112       -0.355671     -0.355669
  113       -0.296369     -0.296368
  114       -0.189857     -0.189857
  115       -0.140607     -0.140602
  116       -0.082958     -0.082953
  117        0.012489      0.012495
  118        0.118450      0.118452
  119        0.228125      0.228130
  120        0.349831      0.349849
  121        0.392180      0.392190
  122        0.476378      0.476377
  123        0.483049      0.483056
  124        0.560161      0.560178
  125        0.606304      0.606305
  126        0.655889      0.655900
  127        0.694199      0.694178
  128        0.718277      0.718102
