       N       E                     dE             d eps       ncg     rms          rms(c)
DAV:   1     0.909033132699E+03    0.90903E+03   -0.58813E+04   768   0.974E+02
DAV:   2    -0.683374410727E+02   -0.97737E+03   -0.97102E+03  1024   0.160E+02
DAV:   3    -0.393054912357E+03   -0.32472E+03   -0.32425E+03   832   0.847E+01
DAV:   4    -0.411844410828E+03   -0.18789E+02   -0.18765E+02   704   0.256E+01
DAV:   5    -0.412065513774E+03   -0.22110E+00   -0.22076E+00   832   0.303E+00    0.576E+01
DAV:   6    -0.394192858200E+03    0.17873E+02   -0.38931E+02   576   0.233E+01    0.392E+01
DAV:   7    -0.383274507985E+03    0.10918E+02   -0.22974E+01   704   0.212E+01    0.239E+01
DAV:   8    -0.378935275892E+03    0.43392E+01   -0.17561E+01   768   0.102E+01    0.966E+00
DAV:   9    -0.377735822972E+03    0.11995E+01   -0.44159E+00   768   0.454E+00    0.367E+00
DAV:  10    -0.377678086936E+03    0.57736E-01   -0.53276E-01   768   0.173E+00    0.254E+00
DAV:  11    -0.377570537688E+03    0.10755E+00   -0.87762E-02   768   0.796E-01    0.138E+00
DAV:  12    -0.377482896013E+03    0.87642E-01   -0.97935E-02   768   0.729E-01    0.678E-01
DAV:  13    -0.377454716754E+03    0.28179E-01   -0.19924E-02   768   0.378E-01    0.527E-01
DAV:  14    -0.377439189751E+03    0.15527E-01   -0.30328E-02   768   0.436E-01    0.284E-01
DAV:  15    -0.377442558041E+03   -0.33683E-02   -0.58053E-03   768   0.219E-01    0.239E-01
DAV:  16    -0.377451442938E+03   -0.88849E-02   -0.15085E-03   768   0.123E-01    0.136E-01
DAV:  17    -0.377458153654E+03   -0.67107E-02   -0.14953E-03   768   0.112E-01    0.853E-02
DAV:  18    -0.377462434672E+03   -0.42810E-02   -0.53871E-04   896   0.672E-02    0.684E-02
DAV:  19    -0.377466874757E+03   -0.44401E-02   -0.33863E-04   640   0.561E-02    0.404E-02
DAV:  20    -0.377469666780E+03   -0.27920E-02   -0.15314E-04   768   0.362E-02    0.245E-02
DAV:  21    -0.377471098235E+03   -0.14315E-02   -0.47199E-05   576   0.202E-02    0.168E-02
DAV:  22    -0.377472402858E+03   -0.13046E-02   -0.38382E-05   768   0.161E-02    0.972E-03
DAV:  23    -0.377472934186E+03   -0.53133E-03   -0.98198E-06   384   0.796E-03    0.705E-03
DAV:  24    -0.377473326059E+03   -0.39187E-03   -0.82248E-06   640   0.620E-03    0.393E-03
DAV:  25    -0.377473556377E+03   -0.23032E-03   -0.41776E-06   512   0.411E-03    0.214E-03
DAV:  26    -0.377473699874E+03   -0.14350E-03   -0.23982E-06   640   0.291E-03    0.171E-03
DAV:  27    -0.377473770926E+03   -0.71052E-04   -0.92196E-07   640   0.181E-03    0.121E-03
DAV:  28    -0.377473822555E+03   -0.51628E-04   -0.74702E-07   640   0.158E-03    0.565E-04
DAV:  29    -0.377473843425E+03   -0.20871E-04   -0.16909E-07   640   0.914E-04    0.445E-04
DAV:  30    -0.377473854067E+03   -0.10642E-04    0.10781E-08   640   0.583E-04    0.267E-04
DAV:  31    -0.377473861223E+03   -0.71559E-05    0.44356E-08   640   0.485E-04
   1 F= -.37747386E+03 E0= -.37747386E+03  d E =-.110413E-51  mag=     0.0000
