 vasp.5.3.5 31Mar14 (build Apr 08 2014 12:00:03) complex                        
  
 VASP binary ID code NSC-NSCPATCH-BUILD02 date 2017.03.15  18:38:23
 running on   64 total cores
 distrk:  each k-point on   64 cores,    1 groups
 distr:  one band on NCORES_PER_BAND=   1 cores,   64 groups


--------------------------------------------------------------------------------------------------------


 INCAR:
 POTCAR:    PAW_PBE C_h 06Feb2004                 
 POTCAR:    PAW_PBE C_h 06Feb2004                 
 POTCAR:    PAW_PBE H 15Jun2001                   
 POTCAR:    PAW_PBE N_h 06Feb2004                 
 POTCAR:    PAW_PBE O_h 06Feb2004                 
 POTCAR:    PAW_PBE Ru_pv 28Jan2005               

 ----------------------------------------------------------------------------- 
|                                                                             |
|           W    W    AA    RRRRR   N    N  II  N    N   GGGG   !!!           |
|           W    W   A  A   R    R  NN   N  II  NN   N  G    G  !!!           |
|           W    W  A    A  R    R  N N  N  II  N N  N  G       !!!           |
|           W WW W  AAAAAA  RRRRR   N  N N  II  N  N N  G  GGG   !            |
|           WW  WW  A    A  R   R   N   NN  II  N   NN  G    G                |
|           W    W  A    A  R    R  N    N  II  N    N   GGGG   !!!           |
|                                                                             |
|      For optimal performance we recommend to set                            |
|        NCORE= 4 - approx SQRT( number of cores)                             |
|      NCORE specifies how many cores store one orbital (NPAR=cpu/NCORE).     |
|      This setting can  greatly improve the performance of VASP for DFT.     |
|      The default, NPAR=number of cores might be grossly inefficient         |
|      on modern multi-core architectures or massively parallel machines.     |
|      Do your own testing !!!!                                               |
|      Unfortunately you need to use the default for GW and RPA calculations. |
|      (for HF NCORE is supported but not extensively tested yet)             |
|                                                                             |
 ----------------------------------------------------------------------------- 

 POTCAR:    PAW_PBE C_h 06Feb2004                 
   VRHFIN =C: s2p2                                                              
   LEXCH  = PE                                                                  
   EATOM  =   147.1560 eV,   10.8157 Ry                                         
                                                                                
   TITEL  = PAW_PBE C_h 06Feb2004                                               
   LULTRA =        F    use ultrasoft PP ?                                      
   IUNSCR =        1    unscreen: 0-lin 1-nonlin 2-no                           
   RPACOR =    0.800    partial core radius                                     
   POMASS =   12.011; ZVAL   =    4.000    mass and valenz                      
   RCORE  =    1.100    outmost cutoff radius                                   
   RWIGS  =    1.630; RWIGS  =    0.863    wigner-seitz radius (au A)           
   ENMAX  =  700.000; ENMIN  =  500.000 eV                                      
   ICORE  =        2    local potential                                         
   LCOR   =        T    correct aug charges                                     
   LPAW   =        T    paw PP                                                  
   EAUG   =  946.768                                                            
   DEXC   =    0.000                                                            
   RMAX   =    1.128    core radius for proj-oper                               
   RAUG   =    1.300    factor for augmentation sphere                          
   RDEP   =    1.162    radius for radial grids                                 
   RDEPT  =    1.088    core radius for aug-charge                              
                                                                                
   Atomic configuration                                                         
    4 entries                                                                   
     n  l   j            E        occ.                                          
     1  0  0.50      -273.3789   2.0000                                         
     2  0  0.50       -13.7508   2.0000                                         
     2  1  0.50        -5.2854   2.0000                                         
     3  2  1.50        -5.4423   0.0000                                         
   Description                                                                  
     l       E           TYP  RCUT    TYP  RCUT                                 
     0    -13.7508458     23  1.100                                             
     0     -8.2022199     23  1.100                                             
     1     -5.2854383     23  1.100                                             
     1      1.1560700     23  1.100                                             
     2     -5.4423304      7  1.100                                             
  local pseudopotential read in
  partial core-charges read in
  partial kinetic energy density read in
  atomic valenz-charges read in
  non local Contribution for L=           0  read in
    real space projection operators read in
  non local Contribution for L=           0  read in
    real space projection operators read in
  non local Contribution for L=           1  read in
    real space projection operators read in
  non local Contribution for L=           1  read in
    real space projection operators read in
    PAW grid and wavefunctions read in
 
   number of l-projection  operators is LMAX  =           4
   number of lm-projection operators is LMMAX =           8
 
 POTCAR:    PAW_PBE C_h 06Feb2004                 
   VRHFIN =C: s2p2                                                              
   LEXCH  = PE                                                                  
   EATOM  =   147.1560 eV,   10.8157 Ry                                         
                                                                                
   TITEL  = PAW_PBE C_h 06Feb2004                                               
   LULTRA =        F    use ultrasoft PP ?                                      
   IUNSCR =        1    unscreen: 0-lin 1-nonlin 2-no                           
   RPACOR =    0.800    partial core radius                                     
   POMASS =   12.011; ZVAL   =    4.000    mass and valenz                      
   RCORE  =    1.100    outmost cutoff radius                                   
   RWIGS  =    1.630; RWIGS  =    0.863    wigner-seitz radius (au A)           
   ENMAX  =  700.000; ENMIN  =  500.000 eV                                      
   ICORE  =        2    local potential                                         
   LCOR   =        T    correct aug charges                                     
   LPAW   =        T    paw PP                                                  
   EAUG   =  946.768                                                            
   DEXC   =    0.000                                                            
   RMAX   =    1.128    core radius for proj-oper                               
   RAUG   =    1.300    factor for augmentation sphere                          
   RDEP   =    1.162    radius for radial grids                                 
   RDEPT  =    1.088    core radius for aug-charge                              
                                                                                
   Atomic configuration                                                         
    4 entries                                                                   
     n  l   j            E        occ.                                          
     1  0  0.50      -273.3789   2.0000                                         
     2  0  0.50       -13.7508   2.0000                                         
     2  1  0.50        -5.2854   2.0000                                         
     3  2  1.50        -5.4423   0.0000                                         
   Description                                                                  
     l       E           TYP  RCUT    TYP  RCUT                                 
     0    -13.7508458     23  1.100                                             
     0     -8.2022199     23  1.100                                             
     1     -5.2854383     23  1.100                                             
     1      1.1560700     23  1.100                                             
     2     -5.4423304      7  1.100                                             
  local pseudopotential read in
  partial core-charges read in
  partial kinetic energy density read in
  atomic valenz-charges read in
  non local Contribution for L=           0  read in
    real space projection operators read in
  non local Contribution for L=           0  read in
    real space projection operators read in
  non local Contribution for L=           1  read in
    real space projection operators read in
  non local Contribution for L=           1  read in
    real space projection operators read in
    PAW grid and wavefunctions read in
 
   number of l-projection  operators is LMAX  =           4
   number of lm-projection operators is LMMAX =           8
 
 POTCAR:    PAW_PBE H 15Jun2001                   
   VRHFIN =H: ultrasoft test                                                    
   LEXCH  = PE                                                                  
   EATOM  =    12.4884 eV,    0.9179 Ry                                         
                                                                                
   TITEL  = PAW_PBE H 15Jun2001                                                 
   LULTRA =        F    use ultrasoft PP ?                                      
   IUNSCR =        0    unscreen: 0-lin 1-nonlin 2-no                           
   RPACOR =    0.000    partial core radius                                     
   POMASS =    1.000; ZVAL   =    1.000    mass and valenz                      
   RCORE  =    1.100    outmost cutoff radius                                   
   RWIGS  =    0.700; RWIGS  =    0.370    wigner-seitz radius (au A)           
   ENMAX  =  250.000; ENMIN  =  200.000 eV                                      
   RCLOC  =    0.701    cutoff for local pot                                    
   LCOR   =        T    correct aug charges                                     
   LPAW   =        T    paw PP                                                  
   EAUG   =  400.000                                                            
   RMAX   =    1.123    core radius for proj-oper                               
   RAUG   =    1.200    factor for augmentation sphere                          
   RDEP   =    1.112    radius for radial grids                                 
   RDEPT  =    0.926    core radius for aug-charge                              
                                                                                
   Atomic configuration                                                         
    2 entries                                                                   
     n  l   j            E        occ.                                          
     1  0  0.50        -6.4927   1.0000                                         
     2  1  0.50        -3.4015   0.0000                                         
   Description                                                                  
     l       E           TYP  RCUT    TYP  RCUT                                 
     0     -6.4927494     23  1.100                                             
     0      6.8029130     23  1.100                                             
     1     -4.0817478     23  1.100                                             
  local pseudopotential read in
  atomic valenz-charges read in
  non local Contribution for L=           0  read in
    real space projection operators read in
  non local Contribution for L=           0  read in
    real space projection operators read in
  non local Contribution for L=           1  read in
    real space projection operators read in
    PAW grid and wavefunctions read in
 
   number of l-projection  operators is LMAX  =           3
   number of lm-projection operators is LMMAX =           5
 
 POTCAR:    PAW_PBE N_h 06Feb2004                 
   VRHFIN =N: s2p3                                                              
   LEXCH  = PE                                                                  
   EATOM  =   264.5486 eV,   19.4438 Ry                                         
                                                                                
   TITEL  = PAW_PBE N_h 06Feb2004                                               
   LULTRA =        F    use ultrasoft PP ?                                      
   IUNSCR =        1    unscreen: 0-lin 1-nonlin 2-no                           
   RPACOR =    0.800    partial core radius                                     
   POMASS =   14.001; ZVAL   =    5.000    mass and valenz                      
   RCORE  =    1.100    outmost cutoff radius                                   
   RWIGS  =    1.480; RWIGS  =    0.783    wigner-seitz radius (au A)           
   ENMAX  =  700.000; ENMIN  =  500.000 eV                                      
   ICORE  =        2    local potential                                         
   LCOR   =        T    correct aug charges                                     
   LPAW   =        T    paw PP                                                  
   EAUG   =  904.640                                                            
   DEXC   =    0.000                                                            
   RMAX   =    1.127    core radius for proj-oper                               
   RAUG   =    1.300    factor for augmentation sphere                          
   RDEP   =    1.115    radius for radial grids                                 
   RDEPT  =    1.106    core radius for aug-charge                              
                                                                                
   Atomic configuration                                                         
    4 entries                                                                   
     n  l   j            E        occ.                                          
     1  0  0.50      -384.7179   2.0000                                         
     2  0  0.50       -18.5828   2.0000                                         
     2  1  0.50        -7.0898   3.0000                                         
     3  2  1.50        -6.8029   0.0000                                         
   Description                                                                  
     l       E           TYP  RCUT    TYP  RCUT                                 
     0    -18.5828117     23  1.100                                             
     0    -15.0750597     23  1.100                                             
     1     -7.0897851     23  1.100                                             
     1     -1.9663412     23  1.100                                             
     2     -6.8029130      7  1.100                                             
  local pseudopotential read in
  partial core-charges read in
  partial kinetic energy density read in
  kinetic energy density of atom read in
  atomic valenz-charges read in
  non local Contribution for L=           0  read in
    real space projection operators read in
  non local Contribution for L=           0  read in
    real space projection operators read in
  non local Contribution for L=           1  read in
    real space projection operators read in
  non local Contribution for L=           1  read in
    real space projection operators read in
    PAW grid and wavefunctions read in
 
   number of l-projection  operators is LMAX  =           4
   number of lm-projection operators is LMMAX =           8
 
 POTCAR:    PAW_PBE O_h 06Feb2004                 
   VRHFIN =O: s2p4                                                              
   LEXCH  = PE                                                                  
   EATOM  =   432.3788 eV,   31.7789 Ry                                         
                                                                                
   TITEL  = PAW_PBE O_h 06Feb2004                                               
   LULTRA =        F    use ultrasoft PP ?                                      
   IUNSCR =        1    unscreen: 0-lin 1-nonlin 2-no                           
   RPACOR =    0.800    partial core radius                                     
   POMASS =   16.000; ZVAL   =    6.000    mass and valenz                      
   RCORE  =    1.100    outmost cutoff radius                                   
   RWIGS  =    1.400; RWIGS  =    0.741    wigner-seitz radius (au A)           
   ENMAX  =  700.000; ENMIN  =  500.000 eV                                      
   ICORE  =        2    local potential                                         
   LCOR   =        T    correct aug charges                                     
   LPAW   =        T    paw PP                                                  
   EAUG   =  888.804                                                            
   DEXC   =    0.000                                                            
   RMAX   =    1.128    core radius for proj-oper                               
   RAUG   =    1.300    factor for augmentation sphere                          
   RDEP   =    1.125    radius for radial grids                                 
   RDEPT  =    1.088    core radius for aug-charge                              
                                                                                
   Atomic configuration                                                         
    4 entries                                                                   
     n  l   j            E        occ.                                          
     1  0  0.50      -514.6923   2.0000                                         
     2  0  0.50       -23.9615   2.0000                                         
     2  1  0.50        -9.0305   4.0000                                         
     3  2  1.50        -9.5241   0.0000                                         
   Description                                                                  
     l       E           TYP  RCUT    TYP  RCUT                                 
     0    -23.9615319     23  1.100                                             
     0    -25.3221145     23  1.100                                             
     1     -9.0304911     23  1.100                                             
     1     -5.4802209     23  1.100                                             
     2     -9.5240782      7  1.100                                             
  local pseudopotential read in
  partial core-charges read in
  partial kinetic energy density read in
  atomic valenz-charges read in
  non local Contribution for L=           0  read in
    real space projection operators read in
  non local Contribution for L=           0  read in
    real space projection operators read in
  non local Contribution for L=           1  read in
    real space projection operators read in
  non local Contribution for L=           1  read in
    real space projection operators read in
    PAW grid and wavefunctions read in
 
   number of l-projection  operators is LMAX  =           4
   number of lm-projection operators is LMMAX =           8
 
 POTCAR:    PAW_PBE Ru_pv 28Jan2005               
   VRHFIN =Ru: 4p5s4d                                                           
   LEXCH  = PE                                                                  
   EATOM  =  1873.4746 eV,  137.6965 Ry                                         
                                                                                
   TITEL  = PAW_PBE Ru_pv 28Jan2005                                             
   LULTRA =        F    use ultrasoft PP ?                                      
   IUNSCR =        1    unscreen: 0-lin 1-nonlin 2-no                           
   RPACOR =    2.170    partial core radius                                     
   POMASS =  101.070; ZVAL   =   14.000    mass and valenz                      
   RCORE  =    2.500    outmost cutoff radius                                   
   RWIGS  =    2.650; RWIGS  =    1.402    wigner-seitz radius (au A)           
   ENMAX  =  240.049; ENMIN  =  180.037 eV                                      
   ICORE  =        3    local potential                                         
   LCOR   =        T    correct aug charges                                     
   LPAW   =        T    paw PP                                                  
   EAUG   =  430.792                                                            
   DEXC   =    0.000                                                            
   RMAX   =    2.546    core radius for proj-oper                               
   RAUG   =    1.300    factor for augmentation sphere                          
   RDEP   =    2.520    radius for radial grids                                 
   RDEPT  =    2.044    core radius for aug-charge                              
                                                                                
   Atomic configuration                                                         
   11 entries                                                                   
     n  l   j            E        occ.                                          
     1  0  0.50    -21933.2692   2.0000                                         
     2  0  0.50     -3153.4096   2.0000                                         
     2  1  1.50     -2823.9548   6.0000                                         
     3  0  0.50      -555.3322   2.0000                                         
     3  1  1.50      -447.1024   6.0000                                         
     3  2  2.50      -273.0570  10.0000                                         
     4  0  0.50       -76.3589   2.0000                                         
     4  1  1.50       -46.4050   6.0000                                         
     4  2  2.50        -5.2029   7.0000                                         
     5  0  0.50        -4.2392   1.0000                                         
     4  3  2.50        -1.3606   0.0000                                         
   Description                                                                  
     l       E           TYP  RCUT    TYP  RCUT                                 
     1    -46.4050190     23  2.100                                             
     1      4.0817478     23  2.100                                             
     2     -5.2028758     23  2.500                                             
     2     -6.5634584     23  2.500                                             
     0     -4.2392192     23  2.500                                             
     0      7.0918828     23  2.500                                             
     3     -5.4423304     23  2.500                                             
  local pseudopotential read in
  partial core-charges read in
  partial kinetic energy density read in
  atomic valenz-charges read in
  non local Contribution for L=           1  read in
    real space projection operators read in
  non local Contribution for L=           1  read in
    real space projection operators read in
  non local Contribution for L=           2  read in
    real space projection operators read in
  non local Contribution for L=           2  read in
    real space projection operators read in
  non local Contribution for L=           0  read in
    real space projection operators read in
  non local Contribution for L=           0  read in
    real space projection operators read in
    PAW grid and wavefunctions read in
 
   number of l-projection  operators is LMAX  =           6
   number of lm-projection operators is LMMAX =          18
 
 Optimization of the real space projectors (new method)

 maximal supplied QI-value         = 34.20
 optimisation between [QCUT,QGAM] = [ 13.34, 27.02] = [ 49.83,204.46] Ry 
 Optimized for a Real-space Cutoff    1.04 Angstroem

   l    n(q)    QCUT    max X(q) W(low)/X(q) W(high)/X(q)  e(spline) 
   0      8    13.340   134.812    0.72E-04    0.21E-03    0.27E-06
   0      8    13.340    80.524    0.70E-04    0.21E-03    0.27E-06
   1      8    13.340    79.026    0.21E-03    0.16E-03    0.33E-06
   1      8    13.340    45.188    0.20E-03    0.15E-03    0.33E-06
 Optimization of the real space projectors (new method)

 maximal supplied QI-value         = 34.20
 optimisation between [QCUT,QGAM] = [ 13.34, 27.02] = [ 49.83,204.46] Ry 
 Optimized for a Real-space Cutoff    1.04 Angstroem

   l    n(q)    QCUT    max X(q) W(low)/X(q) W(high)/X(q)  e(spline) 
   0      8    13.340   134.812    0.72E-04    0.21E-03    0.27E-06
   0      8    13.340    80.524    0.70E-04    0.21E-03    0.27E-06
   1      8    13.340    79.026    0.21E-03    0.16E-03    0.33E-06
   1      8    13.340    45.188    0.20E-03    0.15E-03    0.33E-06
 Optimization of the real space projectors (new method)

 maximal supplied QI-value         = 34.20
 optimisation between [QCUT,QGAM] = [ 13.34, 27.02] = [ 49.83,204.46] Ry 
 Optimized for a Real-space Cutoff    0.98 Angstroem

   l    n(q)    QCUT    max X(q) W(low)/X(q) W(high)/X(q)  e(spline) 
   0      8    13.340    19.460    0.18E-03    0.41E-04    0.19E-06
   0      8    13.340    12.209    0.17E-03    0.45E-04    0.18E-06
   1      7    13.340     4.655    0.16E-03    0.30E-03    0.14E-06
 Optimization of the real space projectors (new method)

 maximal supplied QI-value         = 34.20
 optimisation between [QCUT,QGAM] = [ 13.34, 27.02] = [ 49.83,204.46] Ry 
 Optimized for a Real-space Cutoff    1.04 Angstroem

   l    n(q)    QCUT    max X(q) W(low)/X(q) W(high)/X(q)  e(spline) 
   0      8    13.340   148.539    0.85E-04    0.19E-03    0.21E-06
   0      8    13.340   106.192    0.84E-04    0.19E-03    0.21E-06
   1      8    13.340    73.877    0.18E-03    0.11E-03    0.36E-06
   1      8    13.340    50.042    0.17E-03    0.11E-03    0.36E-06
 Optimization of the real space projectors (new method)

 maximal supplied QI-value         = 34.20
 optimisation between [QCUT,QGAM] = [ 13.34, 27.02] = [ 49.83,204.46] Ry 
 Optimized for a Real-space Cutoff    0.98 Angstroem

   l    n(q)    QCUT    max X(q) W(low)/X(q) W(high)/X(q)  e(spline) 
   0      8    13.340   280.207    0.16E-03    0.35E-03    0.14E-06
   0      8    13.340   228.978    0.16E-03    0.35E-03    0.14E-06
   1      7    13.340    86.127    0.23E-03    0.25E-04    0.30E-06
   1      7    13.340    65.368    0.22E-03    0.27E-04    0.30E-06
 Optimization of the real space projectors (new method)

 maximal supplied QI-value         = 15.12
 optimisation between [QCUT,QGAM] = [ 13.45, 27.06] = [ 50.69,205.06] Ry 
 Optimized for a Real-space Cutoff    1.40 Angstroem

   l    n(q)    QCUT    max X(q) W(low)/X(q) W(high)/X(q)  e(spline) 
   1     11    13.455     3.180    0.18E-04    0.25E-04    0.55E-07
   1     11    13.455     5.351    0.12E-03    0.15E-03    0.24E-06
   2     10    13.455    66.565    0.13E-03    0.46E-04    0.26E-06
   2     10    13.455    63.466    0.13E-03    0.47E-04    0.27E-06
   0     11    13.455    85.644    0.47E-04    0.16E-04    0.33E-06
   0     11    13.455    44.119    0.43E-04    0.15E-04    0.30E-06
  PAW_PBE C_h 06Feb2004                 :
 energy of atom  1       EATOM= -147.1560
 kinetic energy error for atom=    0.0286 (will be added to EATOM!!)
  PAW_PBE C_h 06Feb2004                 :
 energy of atom  2       EATOM= -147.1560
 kinetic energy error for atom=    0.0286 (will be added to EATOM!!)
  PAW_PBE H 15Jun2001                   :
 energy of atom  3       EATOM=  -12.4884
 kinetic energy error for atom=    0.0002 (will be added to EATOM!!)
  PAW_PBE N_h 06Feb2004                 :
 energy of atom  4       EATOM= -264.5486
 kinetic energy error for atom=    0.0847 (will be added to EATOM!!)
  PAW_PBE O_h 06Feb2004                 :
 energy of atom  5       EATOM= -432.3788
 kinetic energy error for atom=    0.1855 (will be added to EATOM!!)
  PAW_PBE Ru_pv 28Jan2005               :
 energy of atom  6       EATOM=-1873.4746
 kinetic energy error for atom=    0.0017 (will be added to EATOM!!)
 
 
 POSCAR: C C H N O Ru                            
  positions in direct lattice
  velocities in cartesian coordinates
 exchange correlation table for  LEXCH =        8
   RHO(1)=    0.500       N(1)  =     2000
   RHO(2)=  100.500       N(2)  =     4000
 


--------------------------------------------------------------------------------------------------------


 ion  position               nearest neighbor table
   1  0.456  0.660  0.399-  33 1.09   4 1.39   6 1.40
   2  0.438  0.566  0.328-  43 1.09   3 1.39   6 1.39
   3  0.456  0.524  0.381-  38 1.09  49 1.36   2 1.39
   4  0.474  0.615  0.450-  34 1.09  49 1.36   1 1.39
   5  0.293  0.477  0.568-  45 1.09  25 1.39  17 1.40
   6  0.438  0.635  0.337-  32 1.09   2 1.39   1 1.40
   7  0.523  0.330  0.675-  26 1.09   8 1.39  16 1.40
   8  0.497  0.372  0.626-  31 1.09  51 1.36   7 1.39
   9  0.602  0.419  0.606-  51 1.37  10 1.40  14 1.47
  10  0.631  0.378  0.654-  28 1.09  16 1.39   9 1.40
  11  0.740  0.529  0.535-  41 1.09  15 1.39  12 1.40
  12  0.701  0.566  0.490-  37 1.09  13 1.39  11 1.40
  13  0.633  0.554  0.487-  47 1.09  53 1.36  12 1.39
  14  0.640  0.469  0.567-  53 1.37  15 1.40   9 1.47
  15  0.708  0.480  0.573-  36 1.09  11 1.39  14 1.40
  16  0.591  0.332  0.689-  27 1.09  10 1.39   7 1.40
  17  0.362  0.489  0.564-  50 1.37   5 1.40  21 1.46
  18  0.408  0.622  0.691-  48 1.09  22 1.39  19 1.40
  19  0.476  0.626  0.677-  44 1.09  20 1.39  18 1.40
  20  0.503  0.586  0.627-  42 1.09  52 1.36  19 1.39
  21  0.398  0.538  0.604-  52 1.38  22 1.40  17 1.46
  22  0.369  0.578  0.654-  30 1.09  18 1.39  21 1.40
  23  0.373  0.406  0.482-  39 1.09  50 1.35  24 1.39
  24  0.305  0.392  0.484-  40 1.09  23 1.39  25 1.40
  25  0.264  0.428  0.528-  46 1.09   5 1.39  24 1.40
  26  0.490  0.295  0.701-   7 1.09
  27  0.613  0.300  0.727-  16 1.09
  28  0.684  0.381  0.665-  10 1.09
  29  0.542  0.362  0.461-  54 0.97
  30  0.316  0.573  0.664-  22 1.09
  31  0.444  0.371  0.614-   8 1.09
  32  0.424  0.668  0.296-   6 1.09
  33  0.456  0.713  0.410-   1 1.09
  34  0.488  0.634  0.499-   4 1.09
  35  0.569  0.418  0.415-  54 0.98
  36  0.738  0.450  0.608-  15 1.09
  37  0.723  0.605  0.459-  12 1.09
  38  0.456  0.470  0.375-   3 1.09
  39  0.406  0.379  0.449-  23 1.09
  40  0.284  0.353  0.452-  24 1.09
  41  0.793  0.537  0.539-  11 1.09
  42  0.556  0.588  0.614-  20 1.09
  43  0.424  0.543  0.280-   2 1.09
  44  0.509  0.660  0.704-  19 1.09
  45  0.263  0.506  0.603-   5 1.09
  46  0.211  0.418  0.531-  25 1.09
  47  0.601  0.582  0.453-  13 1.09
  48  0.385  0.653  0.729-  18 1.09
  49  0.474  0.548  0.441-   4 1.36   3 1.36  55 2.12
  50  0.402  0.453  0.521-  23 1.35  17 1.37  55 2.06
  51  0.535  0.416  0.592-   8 1.36   9 1.37  55 2.06
  52  0.465  0.543  0.590-  20 1.36  21 1.38  55 2.01
  53  0.601  0.507  0.524-  13 1.36  14 1.37  55 2.08
  54  0.531  0.406  0.442-  29 0.97  35 0.98  55 2.24
  55  0.501  0.481  0.519-  52 2.01  50 2.06  51 2.06  53 2.08  49 2.12  54 2.24
 
  LATTYP: Found a simple cubic cell.
 ALAT       =    20.0000000000
  
  Lattice vectors:
  
 A1 = (  20.0000000000,   0.0000000000,   0.0000000000)
 A2 = (   0.0000000000,  20.0000000000,   0.0000000000)
 A3 = (   0.0000000000,   0.0000000000,  20.0000000000)


Analysis of symmetry for initial positions (statically):
=====================================================================
 Subroutine PRICEL returns:
 Original cell was already a primitive cell.
 

 Routine SETGRP: Setting up the symmetry group for a 
 simple cubic supercell.


 Subroutine GETGRP returns: Found  1 space group operations
 (whereof  1 operations were pure point group operations)
 out of a pool of 48 trial point group operations.


The static configuration has the point symmetry C_1 .


Analysis of symmetry for dynamics (positions and initial velocities):
=====================================================================
 Subroutine PRICEL returns:
 Original cell was already a primitive cell.
 

 Routine SETGRP: Setting up the symmetry group for a 
 simple cubic supercell.


 Subroutine GETGRP returns: Found  1 space group operations
 (whereof  1 operations were pure point group operations)
 out of a pool of 48 trial point group operations.


The dynamic configuration has the point symmetry C_1 .


Analysis of constrained symmetry for selective dynamics:
=====================================================================
 Subroutine PRICEL returns:
 Original cell was already a primitive cell.
 

 Routine SETGRP: Setting up the symmetry group for a 
 simple cubic supercell.


 Subroutine GETGRP returns: Found  1 space group operations
 (whereof  1 operations were pure point group operations)
 out of a pool of 48 trial point group operations.


The constrained configuration has the point symmetry C_1 .


Analysis of magnetic symmetry:
=====================================================================
 Subroutine PRICEL returns:
 Original cell was already a primitive cell.
 

 Subroutine MAGSYM returns: Found  1 space group operations
 (whereof  1 operations were pure point group operations)
 out of a pool of  1 trial space group operations
 (whereof  1 operations were pure point group operations)
 and found also     1 'primitive' translations


The magnetic configuration has the point symmetry C_1 .
 
 
 KPOINTS: K-Points                                

Automatic generation of k-mesh.
Space group operators:
 irot       det(A)        alpha          n_x          n_y          n_z        tau_x        tau_y        tau_z
    1     1.000000     0.000000     1.000000     0.000000     0.000000     0.000000     0.000000     0.000000
 
 Subroutine IBZKPT returns following result:
 ===========================================
 
 Found      1 irreducible k-points:
 
 Following reciprocal coordinates:
            Coordinates               Weight
  0.000000  0.000000  0.000000      1.000000
 
 Following cartesian coordinates:
            Coordinates               Weight
  0.000000  0.000000  0.000000      1.000000
 


--------------------------------------------------------------------------------------------------------




 Dimension of arrays:
   k-points           NKPTS =      1   k-points in BZ     NKDIM =      1   number of bands    NBANDS=    128
   number of dos      NEDOS =    301   number of ions     NIONS =     55
   non local maximal  LDIM  =      6   non local SUM 2l+1 LMDIM =     18
   total plane-waves  NPLWV = ******
   max r-space proj   IRMAX =   8473   max aug-charges    IRDMAX= 268848
   dimension x,y,z NGX =   180 NGY =  180 NGZ =  180
   dimension x,y,z NGXF=   360 NGYF=  360 NGZF=  360
   support grid    NGXF=   720 NGYF=  720 NGZF=  720
   ions per type =               1  24  23   5   1   1
 NGX,Y,Z   is equivalent  to a cutoff of  14.96, 14.96, 14.96 a.u.
 NGXF,Y,Z  is equivalent  to a cutoff of  29.92, 29.92, 29.92 a.u.


 I would recommend the setting:
   dimension x,y,z NGX =   173 NGY =  173 NGZ =  173
 SYSTEM =  c2_oh2_ruthenium_mol                    
 POSCAR =  C C H N O Ru                            

 Startparameter for this run:
   NWRITE =      2    write-flag & timer
   PREC   = accura    normal or accurate (medium, high low for compatibility)
   ISTART =      0    job   : 0-new  1-cont  2-samecut
   ICHARG =      2    charge: 1-file 2-atom 10-const
   ISPIN  =      2    spin polarized calculation?
   LNONCOLLINEAR =      F non collinear calculations
   LSORBIT =      F    spin-orbit coupling
   INIWAV =      1    electr: 0-lowe 1-rand  2-diag
   LASPH  =      F    aspherical Exc in radial PAW
   METAGGA=      F    non-selfconsistent MetaGGA calc.

 Electronic Relaxation 1
   ENCUT  =  700.0 eV  51.45 Ry    7.17 a.u.  43.15 43.15 43.15*2*pi/ulx,y,z
   ENINI  =  700.0     initial cutoff
   ENAUG  =  946.8 eV  augmentation charge cutoff
   NELM   =     60;   NELMIN=  2; NELMDL= -5     # of ELM steps 
   EDIFF  = 0.1E-04   stopping-criterion for ELM
   LREAL  =      T    real-space projection
   NLSPLINE    = F    spline interpolate recip. space projectors
   LCOMPAT=      F    compatible to vasp.4.4
   GGA_COMPAT  = T    GGA compatible to vasp.4.4-vasp.4.6
   LMAXPAW     = -100 max onsite density
   LMAXMIX     =    2 max onsite mixed and CHGCAR
   VOSKOWN=      0    Vosko Wilk Nusair interpolation
   ROPT   =   -0.00025  -0.00025  -0.00025  -0.00025
   ROPT   =   -0.00025  -0.00025
 Ionic relaxation
   EDIFFG = -.1E-01   stopping-criterion for IOM
   NSW    =      0    number of steps for IOM
   NBLOCK =      1;   KBLOCK =      1    inner block; outer block 
   IBRION =     -1    ionic relax: 0-MD 1-quasi-New 2-CG
   NFREE  =      0    steps in history (QN), initial steepest desc. (CG)
   ISIF   =      2    stress and relaxation
   IWAVPR =     10    prediction:  0-non 1-charg 2-wave 3-comb
   ISYM   =      2    0-nonsym 1-usesym 2-fastsym
   LCORR  =      T    Harris-Foulkes like correction to forces

   POTIM  = 0.5000    time-step for ionic-motion
   TEIN   =    0.0    initial temperature
   TEBEG  =    0.0;   TEEND  =   0.0 temperature during run
   SMASS  =  -3.00    Nose mass-parameter (am)
   estimated Nose-frequenzy (Omega)   =  0.10E-29 period in steps =****** mass=  -0.914E-26a.u.
   SCALEE = 1.0000    scale energy and forces
   NPACO  =    256;   APACO  = 16.0  distance and # of slots for P.C.
   PSTRESS=    0.0 pullay stress

  Mass of Ions in am
   POMASS =  12.01 12.01  1.00 14.00 16.00101.07
  Ionic Valenz
   ZVAL   =   4.50  4.00  1.00  5.00  6.00 14.00
  Atomic Wigner-Seitz radii
   RWIGS  =  -1.00 -1.00 -1.00 -1.00 -1.00 -1.00
  virtual crystal weights 
   VCA    =   1.00  1.00  1.00  1.00  1.00  1.00
   NELECT =     166.0000    total number of electrons
   NUPDOWN=       0.0000    fix difference up-down

 DOS related values:
   EMIN   =  10.00;   EMAX   =-10.00  energy-range for DOS
   EFERMI =   0.00
   ISMEAR =     0;   SIGMA  =   0.01  broadening in eV -4-tet -1-fermi 0-gaus

 Electronic relaxation 2 (details)
   IALGO  =     38    algorithm
   LDIAG  =      T    sub-space diagonalisation (order eigenvalues)
   LSUBROT=      F    optimize rotation matrix (better conditioning)
   TURBO    =      0    0=normal 1=particle mesh
   IRESTART =      0    0=no restart 2=restart with 2 vectors
   NREBOOT  =      0    no. of reboots
   NMIN     =      0    reboot dimension
   EREF     =   0.00    reference energy to select bands
   IMIX   =      4    mixing-type and parameters
     AMIX     =   0.40;   BMIX     =  2.00
     AMIX_MAG =   1.60;   BMIX_MAG =  2.00
     AMIN     =   0.10
     WC   =   100.;   INIMIX=   1;  MIXPRE=   1;  MAXMIX= -45

 Intra band minimization:
   WEIMIN = 0.0000     energy-eigenvalue tresh-hold
   EBREAK =  0.20E-07  absolut break condition
   DEPER  =   0.30     relativ break condition  

   TIME   =   0.05     timestep for ELM

  volume/ion in A,a.u.               =     145.45       981.58
  Fermi-wavevector in a.u.,A,eV,Ry     =   0.449864  0.850119  2.753510  0.202377
  Thomas-Fermi vector in A             =   1.430192
 
 Write flags
   LWAVE  =      T    write WAVECAR
   LCHARG =      T    write CHGCAR
   LVTOT  =      F    write LOCPOT, total local potential
   LVHAR  =      F    write LOCPOT, Hartree potential only
   LELF   =      F    write electronic localiz. function (ELF)
   LORBIT =      0    0 simple, 1 ext, 2 COOP (PROOUT)


 Dipole corrections
   LMONO  =      F    monopole corrections only (constant potential shift)
   LDIPOL =      F    correct potential (dipole corrections)
   IDIPOL =      0    1-x, 2-y, 3-z, 4-all directions 
   EPSILON=  1.0000000 bulk dielectric constant

 Core level calculations are selected ICORELEVEL =  2
  CLNT =           1       CLN =     1
  CLL  =           0       CLZ = 0.500
 Exchange correlation treatment:
   GGA     =    --    GGA type
   LEXCH   =     8    internal setting for exchange type
   VOSKOWN=      0    Vosko Wilk Nusair interpolation
   LHFCALC =     F    Hartree Fock is set to
   LHFONE  =     F    Hartree Fock one center treatment
   AEXX    =    0.0000 exact exchange contribution

 Linear response parameters
   LEPSILON=     F    determine dielectric tensor
   LRPA    =     F    only Hartree local field effects (RPA)
   LNABLA  =     F    use nabla operator in PAW spheres
   LVEL    =     F    velocity operator in full k-point grid
   LINTERFAST=   F  fast interpolation
   KINTER  =     0    interpolate to denser k-point grid
   CSHIFT  =0.1000    complex shift for real part using Kramers Kronig
   OMEGAMAX=  -1.0    maximum frequency
   DEG_THRESHOLD= 0.2000000E-02 threshold for treating states as degnerate
   RTIME   =    0.100 relaxation time in fs

 Orbital magnetization related:
   ORBITALMAG=     F  switch on orbital magnetization
   LCHIMAG   =     F  perturbation theory with respect to B field
   DQ        =  0.001000  dq finite difference perturbation B field



--------------------------------------------------------------------------------------------------------


 Static calculation
 charge density and potential will be updated during run
 spin polarized calculation
 Variant of blocked Davidson
 Davidson routine will perform the subspace rotation
 perform sub-space diagonalisation
    after iterative eigenvector-optimisation
 modified Broyden-mixing scheme, WC =      100.0
 initial mixing is a Kerker type mixing with AMIX =  0.4000 and BMIX =      2.0000
 Hartree-type preconditioning will be used
 using additional bands           45
 real space projection scheme for non local part
 use partial core corrections
 calculate Harris-corrections to forces 
   (improved forces if not selfconsistent)
 use gradient corrections 
 use of overlap-Matrix (Vanderbilt PP)
 Gauss-broadening in eV      SIGMA  =   0.01


--------------------------------------------------------------------------------------------------------


  energy-cutoff  :      700.00
  volume of cell :     8000.00
      direct lattice vectors                 reciprocal lattice vectors
    20.000000000  0.000000000  0.000000000     0.050000000  0.000000000  0.000000000
     0.000000000 20.000000000  0.000000000     0.000000000  0.050000000  0.000000000
     0.000000000  0.000000000 20.000000000     0.000000000  0.000000000  0.050000000

  length of vectors
    20.000000000 20.000000000 20.000000000     0.050000000  0.050000000  0.050000000


 
 k-points in units of 2pi/SCALE and weight: K-Points                                
   0.00000000  0.00000000  0.00000000       1.000
 
 k-points in reciprocal lattice and weights: K-Points                                
   0.00000000  0.00000000  0.00000000       1.000
 
 position of ions in fractional coordinates (direct lattice) 
   0.45595175  0.65963312  0.39935201
   0.43793752  0.56561110  0.32757008
   0.45581208  0.52423376  0.38051465
   0.47372925  0.61530131  0.44986522
   0.29334713  0.47671938  0.56830116
   0.43785737  0.63472201  0.33675972
   0.52307882  0.32955005  0.67474498
   0.49710163  0.37190466  0.62618823
   0.60227374  0.41933300  0.60593616
   0.63096398  0.37761922  0.65422416
   0.73964927  0.52855915  0.53463181
   0.70082162  0.56612858  0.49044049
   0.63257913  0.55363620  0.48652424
   0.63952130  0.46927713  0.56732841
   0.70843899  0.47974495  0.57314689
   0.59134754  0.33224398  0.68903016
   0.36211554  0.48866484  0.56417415
   0.40790931  0.62211625  0.69058213
   0.47619960  0.62606623  0.67660612
   0.50295190  0.58590820  0.62668073
   0.39825425  0.53800137  0.60426081
   0.36904589  0.57756069  0.65398228
   0.37289802  0.40579857  0.48223443
   0.30486503  0.39173492  0.48443166
   0.26422003  0.42785518  0.52821594
   0.48989745  0.29510618  0.70074864
   0.61334240  0.29968355  0.72673159
   0.68424189  0.38076917  0.66478776
   0.54225374  0.36233861  0.46129841
   0.31579090  0.57306911  0.66420366
   0.44416348  0.37118871  0.61364770
   0.42392665  0.66833230  0.29622671
   0.45642762  0.71313270  0.40950260
   0.48809132  0.63358802  0.49907234
   0.56912778  0.41808713  0.41480476
   0.73767440  0.44963919  0.60776512
   0.72277620  0.60481012  0.45904817
   0.45570253  0.47012894  0.37468790
   0.40614333  0.37888556  0.44852541
   0.28443799  0.35306162  0.45202062
   0.79326502  0.53703787  0.53892527
   0.55589708  0.58769132  0.61440612
   0.42412006  0.54328620  0.27986105
   0.50894741  0.65984570  0.70400156
   0.26265982  0.50568523  0.60265428
   0.21072272  0.41813760  0.53105039
   0.60090654  0.58197914  0.45254259
   0.38544357  0.65296704  0.72941133
   0.47424490  0.54794204  0.44140236
   0.40180479  0.45306079  0.52108436
   0.53520702  0.41608490  0.59173240
   0.46544808  0.54254992  0.59041194
   0.60138410  0.50650621  0.52397638
   0.53073984  0.40562607  0.44215451
   0.50088568  0.48087016  0.51934246
 
 position of ions in cartesian coordinates  (Angst):
   9.11903505 13.19266234  7.98704025
   8.75875044 11.31222209  6.55140167
   9.11624161 10.48467523  7.61029296
   9.47458509 12.30602619  8.99730442
   5.86694270  9.53438759 11.36602327
   8.75714739 12.69444028  6.73519441
  10.46157638  6.59100110 13.49489953
   9.94203263  7.43809325 12.52376455
  12.04547477  8.38665999 12.11872314
  12.61927957  7.55238445 13.08448329
  14.79298537 10.57118301 10.69263621
  14.01643234 11.32257164  9.80880974
  12.65158254 11.07272405  9.73048485
  12.79042597  9.38554253 11.34656829
  14.16877978  9.59489901 11.46293786
  11.82695089  6.64487969 13.78060313
   7.24231077  9.77329687 11.28348299
   8.15818611 12.44232505 13.81164268
   9.52399198 12.52132464 13.53212240
  10.05903801 11.71816400 12.53361469
   7.96508499 10.76002740 12.08521614
   7.38091777 11.55121387 13.07964553
   7.45796037  8.11597149  9.64468853
   6.09730063  7.83469839  9.68863321
   5.28440067  8.55710369 10.56431882
   9.79794892  5.90212351 14.01497288
  12.26684793  5.99367109 14.53463185
  13.68483783  7.61538334 13.29575520
  10.84507475  7.24677213  9.22596819
   6.31581791 11.46138226 13.28407311
   8.88326966  7.42377422 12.27295397
   8.47853309 13.36664601  5.92453423
   9.12855243 14.26265408  8.19005201
   9.76182647 12.67176037  9.98144677
  11.38255564  8.36174255  8.29609511
  14.75348806  8.99278384 12.15530242
  14.45552391 12.09620238  9.18096343
   9.11405064  9.40257887  7.49375804
   8.12286663  7.57771114  8.97050829
   5.68875982  7.06123239  9.04041232
  15.86530045 10.74075733 10.77850539
  11.11794158 11.75382641 12.28812234
   8.48240128 10.86572407  5.59722093
  10.17894811 13.19691406 14.08003122
   5.25319634 10.11370460 12.05308551
   4.21445446  8.36275200 10.62100772
  12.01813087 11.63958272  9.05085175
   7.70887141 13.05934086 14.58822659
   9.48489793 10.95884088  8.82804729
   8.03609572  9.06121573 10.42168714
  10.70414049  8.32169803 11.83464804
   9.30896151 10.85099836 11.80823871
  12.02768196 10.13012430 10.47952760
  10.61479684  8.11252146  8.84309019
  10.01771355  9.61740316 10.38684921
 


--------------------------------------------------------------------------------------------------------


 k-point  1 :   0.0000 0.0000 0.0000  plane waves:  336427

 maximum and minimum number of plane-waves per node :    336427   336427

 maximum number of plane-waves:    336427
 maximum index in each direction: 
   IXMAX=   43   IYMAX=   43   IZMAX=   43
   IXMIN=  -43   IYMIN=  -43   IZMIN=  -43

 NGX is ok and might be reduce to 174
 NGY is ok and might be reduce to 174
 NGZ is ok and might be reduce to 174

 serial   3D FFT for wavefunctions
 parallel 3D FFT for charge:
    minimum data exchange during FFTs selected (reduces bandwidth)


 total amount of memory used by VASP on root node   877132. kBytes
========================================================================

   base      :      30000. kBytes
   nonlr-proj:      19361. kBytes
   fftplans  :     269516. kBytes
   grid      :     534988. kBytes
   one-center:       1710. kBytes
   wavefun   :      21557. kBytes
 
     INWAV:  cpu time    0.00: real time    0.00
 Broyden mixing: mesh for mixing (old mesh)
   NGX = 87   NGY = 87   NGZ = 87
  (NGX  =360   NGY  =360   NGZ  =360)
  gives a total of 658503 points

 initial charge density was supplied:
 charge density of overlapping atoms calculated
 number of electron     168.5000000 magnetization       0.0000000
 keeping initial charge density in first step


--------------------------------------------------------------------------------------------------------


 Maximum index for non-local projection operator         8166
 Maximum index for augmentation-charges         3214 (set IRDMAX)


--------------------------------------------------------------------------------------------------------


 First call to EWALD:  gamma=   0.089
 Maximum number of real-space cells 3x 3x 3
 Maximum number of reciprocal cells 3x 3x 3

 FEWALD executed in parallel
    FEWALD:  cpu time    0.00: real time    0.00


----------------------------------------- Iteration    1(   1)  ---------------------------------------


    POTLOK:  cpu time    4.73: real time    4.76
    SETDIJ:  cpu time    2.81: real time    2.81
     EDDAV:  cpu time   14.83: real time   15.74
       DOS:  cpu time    0.02: real time    0.02
    --------------------------------------------
      LOOP:  cpu time   22.38: real time   23.34

 eigenvalue-minimisations  :   768
 total energy-change (2. order) : 0.9090331E+03  (-0.5881343E+04)
 number of electron     168.5000000 magnetization       0.0000000
 augmentation part      168.5000000 magnetization       0.0000000

 Free energy of the ion-electron system (eV)
  ---------------------------------------------------
  alpha Z        PSCENC =        12.91687988
  Ewald energy   TEWEN  =     23273.40214594
  -Hartree energ DENC   =    -28875.69773024
  -exchange      EXHF   =         0.00000000
  -V(xc)+E(xc)   XCENC  =       400.93343957
  PAW double counting   =      5890.45591622    -5710.10246236
  entropy T*S    EENTRO =        -0.00003270
  eigenvalues    EBANDS =     -1676.27493481
  atomic energy  EATOM  =      7593.39991119
  ---------------------------------------------------
  free energy    TOTEN  =       909.03313270 eV

  energy without entropy =      909.03316540  energy(sigma->0) =      909.03314905


--------------------------------------------------------------------------------------------------------




----------------------------------------- Iteration    1(   2)  ---------------------------------------


     EDDAV:  cpu time   19.09: real time   20.44
       DOS:  cpu time    0.01: real time    0.01
    --------------------------------------------
      LOOP:  cpu time   19.11: real time   20.45

 eigenvalue-minimisations  :  1024
 total energy-change (2. order) :-0.9773706E+03  (-0.9710233E+03)
 number of electron     168.5000000 magnetization       0.0000000
 augmentation part      168.5000000 magnetization       0.0000000

 Free energy of the ion-electron system (eV)
  ---------------------------------------------------
  alpha Z        PSCENC =        12.91687988
  Ewald energy   TEWEN  =     23273.40214594
  -Hartree energ DENC   =    -28875.69773024
  -exchange      EXHF   =         0.00000000
  -V(xc)+E(xc)   XCENC  =       400.93343957
  PAW double counting   =      5890.45591622    -5710.10246236
  entropy T*S    EENTRO =        -0.00000000
  eigenvalues    EBANDS =     -2653.64554128
  atomic energy  EATOM  =      7593.39991119
  ---------------------------------------------------
  free energy    TOTEN  =       -68.33744107 eV

  energy without entropy =      -68.33744107  energy(sigma->0) =      -68.33744107


--------------------------------------------------------------------------------------------------------




----------------------------------------- Iteration    1(   3)  ---------------------------------------


     EDDAV:  cpu time   15.92: real time   16.89
       DOS:  cpu time    0.01: real time    0.01
    --------------------------------------------
      LOOP:  cpu time   15.94: real time   16.90

 eigenvalue-minimisations  :   832
 total energy-change (2. order) :-0.3247175E+03  (-0.3242490E+03)
 number of electron     168.5000000 magnetization       0.0000000
 augmentation part      168.5000000 magnetization       0.0000000

 Free energy of the ion-electron system (eV)
  ---------------------------------------------------
  alpha Z        PSCENC =        12.91687988
  Ewald energy   TEWEN  =     23273.40214594
  -Hartree energ DENC   =    -28875.69773024
  -exchange      EXHF   =         0.00000000
  -V(xc)+E(xc)   XCENC  =       400.93343957
  PAW double counting   =      5890.45591622    -5710.10246236
  entropy T*S    EENTRO =        -0.00000000
  eigenvalues    EBANDS =     -2978.36301257
  atomic energy  EATOM  =      7593.39991119
  ---------------------------------------------------
  free energy    TOTEN  =      -393.05491236 eV

  energy without entropy =     -393.05491236  energy(sigma->0) =     -393.05491236


--------------------------------------------------------------------------------------------------------




----------------------------------------- Iteration    1(   4)  ---------------------------------------


     EDDAV:  cpu time   13.76: real time   14.59
       DOS:  cpu time    0.01: real time    0.01
    --------------------------------------------
      LOOP:  cpu time   13.78: real time   14.61

 eigenvalue-minimisations  :   704
 total energy-change (2. order) :-0.1878950E+02  (-0.1876478E+02)
 number of electron     168.5000000 magnetization       0.0000000
 augmentation part      168.5000000 magnetization       0.0000000

 Free energy of the ion-electron system (eV)
  ---------------------------------------------------
  alpha Z        PSCENC =        12.91687988
  Ewald energy   TEWEN  =     23273.40214594
  -Hartree energ DENC   =    -28875.69773024
  -exchange      EXHF   =         0.00000000
  -V(xc)+E(xc)   XCENC  =       400.93343957
  PAW double counting   =      5890.45591622    -5710.10246236
  entropy T*S    EENTRO =        -0.00000000
  eigenvalues    EBANDS =     -2997.15251104
  atomic energy  EATOM  =      7593.39991119
  ---------------------------------------------------
  free energy    TOTEN  =      -411.84441083 eV

  energy without entropy =     -411.84441083  energy(sigma->0) =     -411.84441083


--------------------------------------------------------------------------------------------------------




----------------------------------------- Iteration    1(   5)  ---------------------------------------


     EDDAV:  cpu time   15.94: real time   17.00
       DOS:  cpu time    0.01: real time    0.01
    CHARGE:  cpu time    5.10: real time    5.12
    MIXING:  cpu time    0.09: real time    0.09
    --------------------------------------------
      LOOP:  cpu time   21.14: real time   22.22

 eigenvalue-minimisations  :   832
 total energy-change (2. order) :-0.2211029E+00  (-0.2207638E+00)
 number of electron     166.0000000 magnetization       0.0000000
 augmentation part        3.5184889 magnetization       0.0018834

 Broyden mixing:
  rms(total) = 0.57632E+01    rms(broyden)= 0.57625E+01
  rms(prec ) = 0.61545E+01
  weight for this iteration     100.00

 Free energy of the ion-electron system (eV)
  ---------------------------------------------------
  alpha Z        PSCENC =        12.91687988
  Ewald energy   TEWEN  =     23273.40214594
  -Hartree energ DENC   =    -28875.69773024
  -exchange      EXHF   =         0.00000000
  -V(xc)+E(xc)   XCENC  =       400.93343957
  PAW double counting   =      5890.45591622    -5710.10246236
  entropy T*S    EENTRO =        -0.00000000
  eigenvalues    EBANDS =     -2997.37361398
  atomic energy  EATOM  =      7593.39991119
  ---------------------------------------------------
  free energy    TOTEN  =      -412.06551377 eV

  energy without entropy =     -412.06551377  energy(sigma->0) =     -412.06551377


--------------------------------------------------------------------------------------------------------




----------------------------------------- Iteration    1(   6)  ---------------------------------------


    POTLOK:  cpu time    4.58: real time    4.62
    SETDIJ:  cpu time    2.84: real time    2.84
     EDDAV:  cpu time   11.73: real time   12.48
       DOS:  cpu time    0.08: real time    0.09
    CHARGE:  cpu time    5.22: real time    5.24
    MIXING:  cpu time    0.07: real time    0.07
    --------------------------------------------
      LOOP:  cpu time   24.54: real time   25.34

 eigenvalue-minimisations  :   576
 total energy-change (2. order) : 0.1787266E+02  (-0.3893056E+02)
 number of electron     166.0000000 magnetization       0.0000000
 augmentation part        6.5259402 magnetization       0.0017944

 Broyden mixing:
  rms(total) = 0.39162E+01    rms(broyden)= 0.39161E+01
  rms(prec ) = 0.40901E+01
  weight for this iteration     100.00

 eigenvalues of (default mixing * dielectric matrix)
  average eigenvalue GAMMA=   1.0317
  1.0317

 Free energy of the ion-electron system (eV)
  ---------------------------------------------------
  alpha Z        PSCENC =        12.91687988
  Ewald energy   TEWEN  =     23273.40214594
  -Hartree energ DENC   =    -28873.55419607
  -exchange      EXHF   =         0.00000000
  -V(xc)+E(xc)   XCENC  =       406.44513283
  PAW double counting   =     20900.28863436   -20733.06503004
  entropy T*S    EENTRO =        -0.00000000
  eigenvalues    EBANDS =     -2974.02633631
  atomic energy  EATOM  =      7593.39991119
  ---------------------------------------------------
  free energy    TOTEN  =      -394.19285820 eV

  energy without entropy =     -394.19285820  energy(sigma->0) =     -394.19285820


--------------------------------------------------------------------------------------------------------




----------------------------------------- Iteration    1(   7)  ---------------------------------------


    POTLOK:  cpu time    4.60: real time    4.62
    SETDIJ:  cpu time    2.78: real time    2.81
     EDDAV:  cpu time   13.99: real time   15.30
       DOS:  cpu time    0.05: real time    0.05
    CHARGE:  cpu time    4.75: real time    5.13
    MIXING:  cpu time    0.24: real time    0.24
    --------------------------------------------
      LOOP:  cpu time   26.41: real time   28.14

 eigenvalue-minimisations  :   704
 total energy-change (2. order) : 0.1091835E+02  (-0.2297411E+01)
 number of electron     166.0000000 magnetization       0.0000000
 augmentation part        5.6015383 magnetization      -0.0003763

 Broyden mixing:
  rms(total) = 0.23895E+01    rms(broyden)= 0.23894E+01
  rms(prec ) = 0.24635E+01
  weight for this iteration     100.00

 eigenvalues of (default mixing * dielectric matrix)
  average eigenvalue GAMMA=   1.4096
  0.7518  2.0673

 Free energy of the ion-electron system (eV)
  ---------------------------------------------------
  alpha Z        PSCENC =        12.91687988
  Ewald energy   TEWEN  =     23273.40214594
  -Hartree energ DENC   =    -29005.56766573
  -exchange      EXHF   =         0.00000000
  -V(xc)+E(xc)   XCENC  =       411.79786378
  PAW double counting   =     36156.18395891   -35984.07916841
  entropy T*S    EENTRO =        -0.00000000
  eigenvalues    EBANDS =     -2841.32843355
  atomic energy  EATOM  =      7593.39991119
  ---------------------------------------------------
  free energy    TOTEN  =      -383.27450799 eV

  energy without entropy =     -383.27450799  energy(sigma->0) =     -383.27450799


--------------------------------------------------------------------------------------------------------




----------------------------------------- Iteration    1(   8)  ---------------------------------------


    POTLOK:  cpu time    4.60: real time    4.61
    SETDIJ:  cpu time    2.82: real time    2.83
     EDDAV:  cpu time   15.06: real time   16.47
       DOS:  cpu time    0.05: real time    0.05
    CHARGE:  cpu time    5.08: real time    5.10
    MIXING:  cpu time    0.27: real time    0.27
    --------------------------------------------
      LOOP:  cpu time   27.89: real time   29.33

 eigenvalue-minimisations  :   768
 total energy-change (2. order) : 0.4339232E+01  (-0.1756062E+01)
 number of electron     166.0000000 magnetization       0.0000000
 augmentation part        4.8857549 magnetization       0.0000869

 Broyden mixing:
  rms(total) = 0.96607E+00    rms(broyden)= 0.96602E+00
  rms(prec ) = 0.10441E+01
  weight for this iteration     100.00

 eigenvalues of (default mixing * dielectric matrix)
  average eigenvalue GAMMA=   1.4479
  2.6782  0.8327  0.8327

 Free energy of the ion-electron system (eV)
  ---------------------------------------------------
  alpha Z        PSCENC =        12.91687988
  Ewald energy   TEWEN  =     23273.40214594
  -Hartree energ DENC   =    -29162.16730807
  -exchange      EXHF   =         0.00000000
  -V(xc)+E(xc)   XCENC  =       419.65399056
  PAW double counting   =     68687.48488525   -68511.97823923
  entropy T*S    EENTRO =        -0.00000000
  eigenvalues    EBANDS =     -2691.64754142
  atomic energy  EATOM  =      7593.39991119
  ---------------------------------------------------
  free energy    TOTEN  =      -378.93527589 eV

  energy without entropy =     -378.93527589  energy(sigma->0) =     -378.93527589


--------------------------------------------------------------------------------------------------------




----------------------------------------- Iteration    1(   9)  ---------------------------------------


    POTLOK:  cpu time    4.60: real time    4.62
    SETDIJ:  cpu time    2.83: real time    2.83
     EDDAV:  cpu time   15.06: real time   16.34
       DOS:  cpu time    0.05: real time    0.05
    CHARGE:  cpu time    4.95: real time    5.23
    MIXING:  cpu time    0.07: real time    0.07
    --------------------------------------------
      LOOP:  cpu time   27.57: real time   29.13

 eigenvalue-minimisations  :   768
 total energy-change (2. order) : 0.1199453E+01  (-0.4415896E+00)
 number of electron     166.0000000 magnetization       0.0000000
 augmentation part        5.2144786 magnetization      -0.0000201

 Broyden mixing:
  rms(total) = 0.36739E+00    rms(broyden)= 0.36736E+00
  rms(prec ) = 0.40621E+00
  weight for this iteration     100.00

 eigenvalues of (default mixing * dielectric matrix)
  average eigenvalue GAMMA=   1.3220
  2.5346  1.1322  0.8106  0.8106

 Free energy of the ion-electron system (eV)
  ---------------------------------------------------
  alpha Z        PSCENC =        12.91687988
  Ewald energy   TEWEN  =     23273.40214594
  -Hartree energ DENC   =    -29187.61409275
  -exchange      EXHF   =         0.00000000
  -V(xc)+E(xc)   XCENC  =       422.49931431
  PAW double counting   =     82507.68177113   -82333.88808419
  entropy T*S    EENTRO =        -0.00000000
  eigenvalues    EBANDS =     -2666.13366849
  atomic energy  EATOM  =      7593.39991119
  ---------------------------------------------------
  free energy    TOTEN  =      -377.73582297 eV

  energy without entropy =     -377.73582297  energy(sigma->0) =     -377.73582297


--------------------------------------------------------------------------------------------------------




----------------------------------------- Iteration    1(  10)  ---------------------------------------


    POTLOK:  cpu time    4.60: real time    4.62
    SETDIJ:  cpu time    2.84: real time    2.84
     EDDAV:  cpu time   15.12: real time   16.44
       DOS:  cpu time    0.04: real time    0.04
    CHARGE:  cpu time    5.32: real time    5.33
    MIXING:  cpu time    0.10: real time    0.11
    --------------------------------------------
      LOOP:  cpu time   28.03: real time   29.38

 eigenvalue-minimisations  :   768
 total energy-change (2. order) : 0.5773604E-01  (-0.5327561E-01)
 number of electron     166.0000000 magnetization       0.0000000
 augmentation part        5.3340408 magnetization       0.0000496

 Broyden mixing:
  rms(total) = 0.25447E+00    rms(broyden)= 0.25447E+00
  rms(prec ) = 0.29727E+00
  weight for this iteration     100.00

 eigenvalues of (default mixing * dielectric matrix)
  average eigenvalue GAMMA=   1.2668
  2.4614  1.5355  0.7514  0.7514  0.8342

 Free energy of the ion-electron system (eV)
  ---------------------------------------------------
  alpha Z        PSCENC =        12.91687988
  Ewald energy   TEWEN  =     23273.40214594
  -Hartree energ DENC   =    -29174.49715115
  -exchange      EXHF   =         0.00000000
  -V(xc)+E(xc)   XCENC  =       422.51277814
  PAW double counting   =     81334.17256102   -81161.02638410
  entropy T*S    EENTRO =        -0.00000000
  eigenvalues    EBANDS =     -2678.55882787
  atomic energy  EATOM  =      7593.39991119
  ---------------------------------------------------
  free energy    TOTEN  =      -377.67808694 eV

  energy without entropy =     -377.67808694  energy(sigma->0) =     -377.67808694


--------------------------------------------------------------------------------------------------------




----------------------------------------- Iteration    1(  11)  ---------------------------------------


    POTLOK:  cpu time    4.59: real time    4.60
    SETDIJ:  cpu time    2.79: real time    2.79
     EDDAV:  cpu time   15.07: real time   16.34
       DOS:  cpu time    0.05: real time    0.05
    CHARGE:  cpu time    5.13: real time    5.13
    MIXING:  cpu time    0.19: real time    0.20
    --------------------------------------------
      LOOP:  cpu time   27.81: real time   29.11

 eigenvalue-minimisations  :   768
 total energy-change (2. order) : 0.1075492E+00  (-0.8776158E-02)
 number of electron     166.0000000 magnetization       0.0000000
 augmentation part        5.3012178 magnetization      -0.0000151

 Broyden mixing:
  rms(total) = 0.13813E+00    rms(broyden)= 0.13813E+00
  rms(prec ) = 0.17997E+00
  weight for this iteration     100.00

 eigenvalues of (default mixing * dielectric matrix)
  average eigenvalue GAMMA=   1.4050
  2.4945  2.4945  1.0257  0.8776  0.8776  0.6605

 Free energy of the ion-electron system (eV)
  ---------------------------------------------------
  alpha Z        PSCENC =        12.91687988
  Ewald energy   TEWEN  =     23273.40214594
  -Hartree energ DENC   =    -29173.67337789
  -exchange      EXHF   =         0.00000000
  -V(xc)+E(xc)   XCENC  =       423.05932981
  PAW double counting   =     81701.93937468   -81528.66570172
  entropy T*S    EENTRO =        -0.00000000
  eigenvalues    EBANDS =     -2679.94909958
  atomic energy  EATOM  =      7593.39991119
  ---------------------------------------------------
  free energy    TOTEN  =      -377.57053769 eV

  energy without entropy =     -377.57053769  energy(sigma->0) =     -377.57053769


--------------------------------------------------------------------------------------------------------




----------------------------------------- Iteration    1(  12)  ---------------------------------------


    POTLOK:  cpu time    4.53: real time    4.79
    SETDIJ:  cpu time    2.81: real time    2.82
     EDDAV:  cpu time   15.11: real time   16.41
       DOS:  cpu time    0.05: real time    0.05
    CHARGE:  cpu time    5.00: real time    5.00
    MIXING:  cpu time    0.24: real time    0.24
    --------------------------------------------
      LOOP:  cpu time   27.75: real time   29.31

 eigenvalue-minimisations  :   768
 total energy-change (2. order) : 0.8764168E-01  (-0.9793495E-02)
 number of electron     166.0000000 magnetization       0.0000000
 augmentation part        5.2605758 magnetization       0.0000679

 Broyden mixing:
  rms(total) = 0.67833E-01    rms(broyden)= 0.67829E-01
  rms(prec ) = 0.10334E+00
  weight for this iteration     100.00

 eigenvalues of (default mixing * dielectric matrix)
  average eigenvalue GAMMA=   1.4320
  2.8109  2.8109  1.0165  1.0165  0.8683  0.8683  0.6324

 Free energy of the ion-electron system (eV)
  ---------------------------------------------------
  alpha Z        PSCENC =        12.91687988
  Ewald energy   TEWEN  =     23273.40214594
  -Hartree energ DENC   =    -29171.04880757
  -exchange      EXHF   =         0.00000000
  -V(xc)+E(xc)   XCENC  =       423.70983219
  PAW double counting   =     81770.47479390   -81597.07446820
  entropy T*S    EENTRO =        -0.00000000
  eigenvalues    EBANDS =     -2683.26318335
  atomic energy  EATOM  =      7593.39991119
  ---------------------------------------------------
  free energy    TOTEN  =      -377.48289601 eV

  energy without entropy =     -377.48289601  energy(sigma->0) =     -377.48289601


--------------------------------------------------------------------------------------------------------




----------------------------------------- Iteration    1(  13)  ---------------------------------------


    POTLOK:  cpu time    4.62: real time    4.65
    SETDIJ:  cpu time    2.84: real time    2.84
     EDDAV:  cpu time   15.02: real time   16.33
       DOS:  cpu time    0.05: real time    0.05
    CHARGE:  cpu time    5.27: real time    5.29
    MIXING:  cpu time    0.12: real time    0.12
    --------------------------------------------
      LOOP:  cpu time   27.93: real time   29.28

 eigenvalue-minimisations  :   768
 total energy-change (2. order) : 0.2817926E-01  (-0.1992357E-02)
 number of electron     166.0000000 magnetization       0.0000000
 augmentation part        5.2562032 magnetization      -0.0000172

 Broyden mixing:
  rms(total) = 0.52699E-01    rms(broyden)= 0.52698E-01
  rms(prec ) = 0.78942E-01
  weight for this iteration     100.00

 eigenvalues of (default mixing * dielectric matrix)
  average eigenvalue GAMMA=   1.5610
  3.4271  2.7859  1.7194  1.0835  1.0835  0.8801  0.8801  0.6287

 Free energy of the ion-electron system (eV)
  ---------------------------------------------------
  alpha Z        PSCENC =        12.91687988
  Ewald energy   TEWEN  =     23273.40214594
  -Hartree energ DENC   =    -29165.30094672
  -exchange      EXHF   =         0.00000000
  -V(xc)+E(xc)   XCENC  =       424.01869126
  PAW double counting   =     81321.23409933   -81147.88197464
  entropy T*S    EENTRO =        -0.00000000
  eigenvalues    EBANDS =     -2689.24352300
  atomic energy  EATOM  =      7593.39991119
  ---------------------------------------------------
  free energy    TOTEN  =      -377.45471675 eV

  energy without entropy =     -377.45471675  energy(sigma->0) =     -377.45471675


--------------------------------------------------------------------------------------------------------




----------------------------------------- Iteration    1(  14)  ---------------------------------------


    POTLOK:  cpu time    4.72: real time    4.76
    SETDIJ:  cpu time    2.81: real time    2.82
     EDDAV:  cpu time   15.00: real time   16.47
       DOS:  cpu time    0.04: real time    0.04
    CHARGE:  cpu time    5.15: real time    5.16
    MIXING:  cpu time    0.13: real time    0.13
    --------------------------------------------
      LOOP:  cpu time   27.86: real time   29.38

 eigenvalue-minimisations  :   768
 total energy-change (2. order) : 0.1552700E-01  (-0.3032774E-02)
 number of electron     166.0000000 magnetization       0.0000000
 augmentation part        5.2636867 magnetization       0.0000225

 Broyden mixing:
  rms(total) = 0.28404E-01    rms(broyden)= 0.28402E-01
  rms(prec ) = 0.43003E-01
  weight for this iteration     100.00

 eigenvalues of (default mixing * dielectric matrix)
  average eigenvalue GAMMA=   1.6270
  4.4601  2.5159  2.1804  1.2777  0.8785  0.8785  0.9123  0.9123  0.6274

 Free energy of the ion-electron system (eV)
  ---------------------------------------------------
  alpha Z        PSCENC =        12.91687988
  Ewald energy   TEWEN  =     23273.40214594
  -Hartree energ DENC   =    -29153.36350105
  -exchange      EXHF   =         0.00000000
  -V(xc)+E(xc)   XCENC  =       424.38417478
  PAW double counting   =     81035.43568020   -80862.20028997
  entropy T*S    EENTRO =        -0.00000000
  eigenvalues    EBANDS =     -2701.41419073
  atomic energy  EATOM  =      7593.39991119
  ---------------------------------------------------
  free energy    TOTEN  =      -377.43918975 eV

  energy without entropy =     -377.43918975  energy(sigma->0) =     -377.43918975


--------------------------------------------------------------------------------------------------------




----------------------------------------- Iteration    1(  15)  ---------------------------------------


    POTLOK:  cpu time    4.58: real time    4.63
    SETDIJ:  cpu time    2.84: real time    2.84
     EDDAV:  cpu time   15.00: real time   16.33
       DOS:  cpu time    0.05: real time    0.05
    CHARGE:  cpu time    5.07: real time    5.09
    MIXING:  cpu time    0.23: real time    0.23
    --------------------------------------------
      LOOP:  cpu time   27.76: real time   29.16

 eigenvalue-minimisations  :   768
 total energy-change (2. order) :-0.3368290E-02  (-0.5805261E-03)
 number of electron     166.0000000 magnetization       0.0000000
 augmentation part        5.2614999 magnetization      -0.0000261

 Broyden mixing:
  rms(total) = 0.23928E-01    rms(broyden)= 0.23927E-01
  rms(prec ) = 0.32581E-01
  weight for this iteration     100.00

 eigenvalues of (default mixing * dielectric matrix)
  average eigenvalue GAMMA=   1.6228
  4.8586  2.4494  2.1128  1.3681  1.1659  1.1659  0.8755  0.8755  0.6271  0.7290

 Free energy of the ion-electron system (eV)
  ---------------------------------------------------
  alpha Z        PSCENC =        12.91687988
  Ewald energy   TEWEN  =     23273.40214594
  -Hartree energ DENC   =    -29145.96612650
  -exchange      EXHF   =         0.00000000
  -V(xc)+E(xc)   XCENC  =       424.46846940
  PAW double counting   =     81000.20224300   -80826.95763178
  entropy T*S    EENTRO =        -0.00000000
  eigenvalues    EBANDS =     -2708.90844919
  atomic energy  EATOM  =      7593.39991119
  ---------------------------------------------------
  free energy    TOTEN  =      -377.44255804 eV

  energy without entropy =     -377.44255804  energy(sigma->0) =     -377.44255804


--------------------------------------------------------------------------------------------------------




----------------------------------------- Iteration    1(  16)  ---------------------------------------


    POTLOK:  cpu time    4.67: real time    4.84
    SETDIJ:  cpu time    2.83: real time    2.84
     EDDAV:  cpu time   15.02: real time   16.32
       DOS:  cpu time    0.05: real time    0.05
    CHARGE:  cpu time    5.11: real time    5.13
    MIXING:  cpu time    0.20: real time    0.20
    --------------------------------------------
      LOOP:  cpu time   27.89: real time   29.38

 eigenvalue-minimisations  :   768
 total energy-change (2. order) :-0.8884897E-02  (-0.1508484E-03)
 number of electron     166.0000000 magnetization       0.0000000
 augmentation part        5.2600622 magnetization       0.0000237

 Broyden mixing:
  rms(total) = 0.13571E-01    rms(broyden)= 0.13571E-01
  rms(prec ) = 0.20362E-01
  weight for this iteration     100.00

 eigenvalues of (default mixing * dielectric matrix)
  average eigenvalue GAMMA=   1.7129
  5.6238  2.5039  2.5039  1.8194  1.4193  0.8839  0.8839  0.9850  0.8727  0.6278
  0.7187

 Free energy of the ion-electron system (eV)
  ---------------------------------------------------
  alpha Z        PSCENC =        12.91687988
  Ewald energy   TEWEN  =     23273.40214594
  -Hartree energ DENC   =    -29138.83832685
  -exchange      EXHF   =         0.00000000
  -V(xc)+E(xc)   XCENC  =       424.44440395
  PAW double counting   =     81091.05831413   -80917.78186764
  entropy T*S    EENTRO =        -0.00000000
  eigenvalues    EBANDS =     -2716.05290354
  atomic energy  EATOM  =      7593.39991119
  ---------------------------------------------------
  free energy    TOTEN  =      -377.45144294 eV

  energy without entropy =     -377.45144294  energy(sigma->0) =     -377.45144294


--------------------------------------------------------------------------------------------------------




----------------------------------------- Iteration    1(  17)  ---------------------------------------


    POTLOK:  cpu time    4.61: real time    4.64
    SETDIJ:  cpu time    2.82: real time    2.83
     EDDAV:  cpu time   15.17: real time   16.43
       DOS:  cpu time    0.05: real time    0.05
    CHARGE:  cpu time    5.21: real time    5.22
    MIXING:  cpu time    0.17: real time    0.17
    --------------------------------------------
      LOOP:  cpu time   28.03: real time   29.35

 eigenvalue-minimisations  :   768
 total energy-change (2. order) :-0.6710716E-02  (-0.1495334E-03)
 number of electron     166.0000000 magnetization       0.0000000
 augmentation part        5.2629799 magnetization      -0.0000209

 Broyden mixing:
  rms(total) = 0.85254E-02    rms(broyden)= 0.85252E-02
  rms(prec ) = 0.12136E-01
  weight for this iteration     100.00

 eigenvalues of (default mixing * dielectric matrix)
  average eigenvalue GAMMA=   1.7777
  6.5054  2.8084  2.8084  1.5990  1.3431  1.3431  0.8829  0.8829  0.9312  0.9312
  0.6267  0.6707

 Free energy of the ion-electron system (eV)
  ---------------------------------------------------
  alpha Z        PSCENC =        12.91687988
  Ewald energy   TEWEN  =     23273.40214594
  -Hartree energ DENC   =    -29131.54399878
  -exchange      EXHF   =         0.00000000
  -V(xc)+E(xc)   XCENC  =       424.40756948
  PAW double counting   =     81152.85704591   -80979.57641757
  entropy T*S    EENTRO =        -0.00000000
  eigenvalues    EBANDS =     -2723.32128970
  atomic energy  EATOM  =      7593.39991119
  ---------------------------------------------------
  free energy    TOTEN  =      -377.45815365 eV

  energy without entropy =     -377.45815365  energy(sigma->0) =     -377.45815365


--------------------------------------------------------------------------------------------------------




----------------------------------------- Iteration    1(  18)  ---------------------------------------


    POTLOK:  cpu time    4.62: real time    4.63
    SETDIJ:  cpu time    2.79: real time    2.81
     EDDAV:  cpu time   17.16: real time   18.53
       DOS:  cpu time    0.04: real time    0.04
    CHARGE:  cpu time    5.46: real time    5.46
    MIXING:  cpu time    0.14: real time    0.14
    --------------------------------------------
      LOOP:  cpu time   30.23: real time   31.62

 eigenvalue-minimisations  :   896
 total energy-change (2. order) :-0.4281019E-02  (-0.5387099E-04)
 number of electron     166.0000000 magnetization       0.0000000
 augmentation part        5.2641386 magnetization       0.0000246

 Broyden mixing:
  rms(total) = 0.68381E-02    rms(broyden)= 0.68380E-02
  rms(prec ) = 0.89238E-02
  weight for this iteration     100.00

 eigenvalues of (default mixing * dielectric matrix)
[...]
 12.563   0.000  21.159   0.000  -0.004   0.000   0.001   0.000   0.001   0.000  -0.008   0.000   0.001   0.000   0.001   0.000
 21.159   0.000  35.638   0.000  -0.007   0.000   0.001   0.000   0.001   0.000  -0.013   0.000   0.002   0.000   0.002   0.000
 -0.004   0.000  -0.007   0.000  -3.541   0.000   0.000   0.000   0.000   0.000  -6.364   0.000   0.000   0.000   0.000   0.000
  0.001   0.000   0.001   0.000   0.000   0.000  -3.541   0.000  -0.000   0.000   0.000   0.000  -6.364   0.000  -0.001   0.000
  0.001   0.000   0.001   0.000   0.000   0.000  -0.000   0.000  -3.540   0.000   0.000   0.000  -0.001   0.000  -6.362   0.000
 -0.008   0.000  -0.013   0.000  -6.364   0.000   0.000   0.000   0.000   0.000 -11.416   0.000   0.000   0.000   0.000   0.000
  0.001   0.000   0.002   0.000   0.000   0.000  -6.364   0.000  -0.001   0.000   0.000   0.000 -11.416   0.000  -0.001   0.000
  0.001   0.000   0.002   0.000   0.000   0.000  -0.001   0.000  -6.362   0.000   0.000   0.000  -0.001   0.000 -11.412   0.000
 pseudopotential strength for first ion, spin component:           2
 12.563   0.000  21.159   0.000  -0.004   0.000   0.001   0.000   0.001   0.000  -0.008   0.000   0.001   0.000   0.001   0.000
 21.159   0.000  35.638   0.000  -0.007   0.000   0.001   0.000   0.001   0.000  -0.013   0.000   0.002   0.000   0.002   0.000
 -0.004   0.000  -0.007   0.000  -3.541   0.000   0.000   0.000   0.000   0.000  -6.364   0.000   0.000   0.000   0.000   0.000
  0.001   0.000   0.001   0.000   0.000   0.000  -3.541   0.000  -0.000   0.000   0.000   0.000  -6.364   0.000  -0.001   0.000
  0.001   0.000   0.001   0.000   0.000   0.000  -0.000   0.000  -3.540   0.000   0.000   0.000  -0.001   0.000  -6.362   0.000
 -0.008   0.000  -0.013   0.000  -6.364   0.000   0.000   0.000   0.000   0.000 -11.416   0.000   0.000   0.000   0.000   0.000
  0.001   0.000   0.002   0.000   0.000   0.000  -6.364   0.000  -0.001   0.000   0.000   0.000 -11.416   0.000  -0.001   0.000
  0.001   0.000   0.002   0.000   0.000   0.000  -0.001   0.000  -6.362   0.000   0.000   0.000  -0.001   0.000 -11.412   0.000
 total augmentation occupancy for first ion, spin component:           1
  1.095  -0.119  -0.568  -0.023   0.024   0.211   0.011  -0.007
 -0.119   0.394   0.254   0.008  -0.011  -0.074  -0.005   0.001
 -0.568   0.254   2.729  -0.068  -0.120  -0.411   0.035   0.039
 -0.023   0.008  -0.068   3.002   0.702   0.035  -0.552  -0.216
  0.024  -0.011  -0.120   0.702   0.960   0.039  -0.216   0.074
  0.211  -0.074  -0.411   0.035   0.039   0.100  -0.014  -0.006
  0.011  -0.005   0.035  -0.552  -0.216  -0.014   0.169   0.035
 -0.007   0.001   0.039  -0.216   0.074  -0.006   0.035   0.070
 total augmentation occupancy for first ion, spin component:           2
 -0.000   0.000   0.000  -0.000   0.000  -0.000   0.000   0.000
  0.000   0.000  -0.000  -0.000  -0.000   0.000   0.000   0.000
  0.000  -0.000   0.000   0.000   0.000  -0.000  -0.000  -0.000
 -0.000  -0.000   0.000  -0.000  -0.000  -0.000   0.000   0.000
  0.000  -0.000   0.000  -0.000   0.000  -0.000   0.000   0.000
 -0.000   0.000  -0.000  -0.000  -0.000  -0.000   0.000   0.000
  0.000   0.000  -0.000   0.000   0.000   0.000  -0.000  -0.000
  0.000   0.000  -0.000   0.000   0.000   0.000  -0.000  -0.000


------------------------ aborting loop because EDIFF is reached ----------------------------------------


    CHARGE:  cpu time    5.20: real time    5.22
    FORLOC:  cpu time    0.57: real time    0.56
    FORNL :  cpu time   19.42: real time   19.50
    STRESS:  cpu time   61.19: real time   61.34
    FORCOR:  cpu time    4.22: real time    4.24
    FORHAR:  cpu time    1.01: real time    1.01
    MIXING:  cpu time    0.21: real time    0.21
    OFIELD:  cpu time    0.00: real time    0.00

  FORCE on cell =-STRESS in cart. coord.  units (eV):
  Direction    XX          YY          ZZ          XY          YZ          ZX
  --------------------------------------------------------------------------------------
  Alpha Z    12.91688    12.91688    12.91688
  Ewald   11088.23249  5642.34913  6542.80608   365.34478 -1604.02672   924.27847
  Hartree 12495.74474  7837.70472  8787.88863    89.49493 -1456.31356   731.09134
  E(xc)    -689.10201  -691.45347  -692.06843     1.39457    -0.13823     0.71496
  Local  -25958.58051-15883.03652-17753.27573  -433.80411  3056.10941 -1654.21035
  n-local   -28.66949   -28.52491   -31.79851     3.51803    -1.01573    -0.93747
  augment    82.79771    84.19790    83.17507     1.48778     0.57404     0.51323
  Kinetic  2983.98896  3009.93979  3035.09492   -27.03225     5.03381    -2.25952
  Fock        0.00000     0.00000     0.00000     0.00000     0.00000     0.00000
  -------------------------------------------------------------------------------------
  Total     -12.67124   -15.90649   -15.26109     0.40373     0.22302    -0.80934
  in kB      -2.53770    -3.18563    -3.05637     0.08086     0.04466    -0.16209
  external pressure =       -2.93 kB  Pullay stress =        0.00 kB


 VOLUME and BASIS-vectors are now :
 -----------------------------------------------------------------------------
  energy-cutoff  :      700.00
  volume of cell :     8000.00
      direct lattice vectors                 reciprocal lattice vectors
    20.000000000  0.000000000  0.000000000     0.050000000  0.000000000  0.000000000
     0.000000000 20.000000000  0.000000000     0.000000000  0.050000000  0.000000000
     0.000000000  0.000000000 20.000000000     0.000000000  0.000000000  0.050000000

  length of vectors
    20.000000000 20.000000000 20.000000000     0.050000000  0.050000000  0.050000000


 FORCES acting on ions
    electron-ion (+dipol)            ewald-force                    non-local-force                 convergence-correction
 -----------------------------------------------------------------------------------------------
   0.408E+02 -.365E+03 0.118E+03   -.411E+02 0.368E+03 -.118E+03   0.360E+00 -.294E+01 0.398E+00   -.205E-04 0.283E-04 -.728E-04
   0.885E+02 -.643E+01 0.335E+03   -.892E+02 0.537E+01 -.338E+03   0.755E+00 0.107E+01 0.236E+01   -.989E-05 0.353E-04 -.278E-04
   0.679E+02 0.831E+02 0.318E+03   -.700E+02 -.863E+02 -.325E+03   0.194E+01 0.332E+01 0.597E+01   -.314E-04 0.139E-04 -.733E-04
   0.134E+01 -.311E+03 0.227E+02   -.176E+00 0.315E+03 -.183E+02   -.145E+01 -.344E+01 -.515E+01   -.397E-04 0.859E-04 -.597E-04
   0.323E+03 -.344E+02 -.117E+03   -.325E+03 0.342E+02 0.117E+03   0.234E+01 0.262E+00 -.326E+00   -.180E-04 0.217E-05 0.266E-04
   0.830E+02 -.204E+03 0.272E+03   -.847E+02 0.203E+03 -.278E+03   0.190E+01 0.742E+00 0.610E+01   0.153E-05 0.464E-04 -.140E-04
   0.748E+02 0.267E+03 -.218E+03   -.752E+02 -.269E+03 0.220E+03   0.451E+00 0.148E+01 -.143E+01   0.125E-04 -.330E-04 0.310E-04
   0.151E+03 0.255E+03 -.164E+03   -.155E+03 -.260E+03 0.168E+03   0.405E+01 0.480E+01 -.387E+01   -.479E-05 -.213E-04 0.318E-04
   -.226E+03 0.123E+03 -.137E+03   0.231E+03 -.124E+03 0.140E+03   -.528E+01 0.121E+01 -.286E+01   0.514E-04 -.166E-04 0.237E-04
   -.257E+03 0.143E+03 -.181E+03   0.259E+03 -.145E+03 0.183E+03   -.121E+01 0.131E+01 -.172E+01   0.310E-04 -.924E-05 0.209E-05
   -.338E+03 -.695E+02 -.101E+01   0.340E+03 0.700E+02 0.103E+01   -.198E+01 -.450E+00 -.215E-01   0.313E-04 0.176E-05 0.683E-05
   -.258E+03 -.192E+03 0.137E+03   0.260E+03 0.193E+03 -.138E+03   -.162E+01 -.108E+01 0.595E+00   0.442E-04 0.131E-04 -.588E-05
   -.182E+03 -.213E+03 0.187E+03   0.185E+03 0.218E+03 -.190E+03   -.380E+01 -.468E+01 0.358E+01   0.537E-04 0.165E-04 -.164E-04
   -.265E+03 0.640E+02 -.924E+02   0.270E+03 -.660E+02 0.954E+02   -.485E+01 0.199E+01 -.300E+01   0.496E-04 -.347E-04 0.350E-04
   -.315E+03 0.614E+02 -.112E+03   0.317E+03 -.613E+02 0.113E+03   -.231E+01 -.114E+00 -.441E+00   0.150E-04 -.180E-04 0.141E-04
   -.122E+03 0.232E+03 -.238E+03   0.123E+03 -.233E+03 0.240E+03   -.573E+00 0.135E+01 -.152E+01   0.324E-04 -.308E-04 0.249E-04
   0.271E+03 -.287E+02 -.104E+03   -.276E+03 0.304E+02 0.107E+03   0.503E+01 -.175E+01 -.276E+01   -.512E-04 0.273E-04 0.364E-04
   0.127E+03 -.218E+03 -.261E+03   -.128E+03 0.219E+03 0.263E+03   0.672E+00 -.125E+01 -.159E+01   -.333E-04 0.319E-04 0.416E-04
   -.744E+02 -.255E+03 -.247E+03   0.747E+02 0.257E+03 0.248E+03   -.327E+00 -.137E+01 -.154E+01   -.166E-04 0.236E-04 0.332E-04
   -.158E+03 -.236E+03 -.197E+03   0.162E+03 0.241E+03 0.202E+03   -.403E+01 -.464E+01 -.422E+01   -.143E-04 -.206E-05 0.172E-04
   0.233E+03 -.953E+02 -.159E+03   -.238E+03 0.962E+02 0.161E+03   0.563E+01 -.887E+00 -.273E+01   -.211E-04 0.145E-04 0.195E-04
   0.265E+03 -.124E+03 -.201E+03   -.266E+03 0.125E+03 0.203E+03   0.123E+01 -.120E+01 -.183E+01   -.220E-04 0.985E-05 0.144E-04
   0.147E+03 0.265E+03 0.192E+03   -.151E+03 -.270E+03 -.196E+03   0.337E+01 0.490E+01 0.390E+01   -.524E-04 -.287E-04 -.246E-04
   0.241E+03 0.224E+03 0.143E+03   -.243E+03 -.225E+03 -.144E+03   0.155E+01 0.118E+01 0.745E+00   -.503E-04 -.315E-04 -.167E-04
   0.337E+03 0.959E+02 0.293E+01   -.339E+03 -.965E+02 -.305E+01   0.194E+01 0.546E+00 0.105E+00   -.336E-04 -.211E-04 0.159E-04
   0.452E+02 0.805E+02 -.636E+02   -.488E+02 -.843E+02 0.665E+02   0.363E+01 0.381E+01 -.289E+01   -.250E-05 -.153E-04 0.117E-04
   -.418E+02 0.694E+02 -.756E+02   0.442E+02 -.731E+02 0.798E+02   -.243E+01 0.361E+01 -.418E+01   0.723E-05 -.141E-04 0.113E-04
   -.992E+02 0.278E+02 -.485E+02   0.105E+03 -.276E+02 0.498E+02   -.582E+01 -.256E+00 -.125E+01   0.521E-05 -.578E-05 0.203E-05
   -.407E+02 0.149E+03 0.159E+02   0.425E+02 -.157E+03 -.125E+02   -.179E+01 0.756E+01 -.336E+01   0.287E-05 -.419E-05 -.647E-06
   0.101E+03 -.224E+02 -.518E+02   -.107E+03 0.220E+02 0.531E+02   0.582E+01 0.414E+00 -.121E+01   -.834E-05 0.448E-05 0.740E-05
   0.800E+02 0.679E+02 -.317E+02   -.858E+02 -.680E+02 0.304E+02   0.587E+01 0.138E+00 0.133E+01   -.666E-05 -.497E-05 0.662E-05
   0.271E+02 -.663E+02 0.828E+02   -.286E+02 0.702E+02 -.872E+02   0.158E+01 -.371E+01 0.461E+01   0.161E-05 0.310E-05 -.523E-05
   0.584E+01 -.117E+03 0.753E+01   -.582E+01 0.122E+03 -.663E+01   -.414E-01 -.618E+01 -.114E+01   -.204E-05 -.640E-05 -.137E-04
   -.146E+02 -.101E+03 -.357E+02   0.162E+02 0.103E+03 0.412E+02   -.161E+01 -.202E+01 -.556E+01   -.651E-05 0.952E-05 -.247E-05
   -.101E+03 0.260E+02 0.116E+03   0.108E+03 -.237E+02 -.121E+03   -.652E+01 -.228E+01 0.483E+01   0.321E-05 -.611E-06 -.440E-05
   -.915E+02 0.385E+02 -.536E+02   0.948E+02 -.418E+02 0.573E+02   -.330E+01 0.324E+01 -.376E+01   0.399E-05 -.318E-05 0.121E-05
   -.662E+02 -.713E+02 0.546E+02   0.687E+02 0.756E+02 -.581E+02   -.246E+01 -.425E+01 0.344E+01   0.126E-04 0.652E-05 -.515E-05
   0.174E+02 0.714E+02 0.885E+02   -.175E+02 -.775E+02 -.892E+02   0.430E-01 0.607E+01 0.707E+00   -.408E-05 0.489E-05 -.125E-04
   0.417E+01 0.905E+02 0.773E+02   -.580E+00 -.936E+02 -.810E+02   -.359E+01 0.301E+01 0.373E+01   -.455E-05 -.941E-05 -.111E-04
   0.603E+02 0.771E+02 0.571E+02   -.626E+02 -.814E+02 -.606E+02   0.229E+01 0.426E+01 0.356E+01   -.126E-04 -.101E-04 -.634E-05
   -.105E+03 -.196E+02 -.455E+01   0.111E+03 0.206E+02 0.502E+01   -.593E+01 -.945E+00 -.470E+00   0.159E-04 0.423E-05 -.320E-06
   -.837E+02 -.639E+02 -.383E+02   0.896E+02 0.641E+02 0.371E+02   -.588E+01 -.238E+00 0.129E+01   0.111E-05 0.116E-05 0.670E-05
   0.287E+02 0.216E+02 0.105E+03   -.302E+02 -.240E+02 -.110E+03   0.154E+01 0.248E+01 0.530E+01   -.245E-05 0.491E-05 -.128E-04
   -.454E+02 -.783E+02 -.700E+02   0.489E+02 0.821E+02 0.730E+02   -.358E+01 -.373E+01 -.305E+01   0.629E-06 0.134E-04 0.148E-04
   0.946E+02 -.330E+02 -.544E+02   -.981E+02 0.361E+02 0.581E+02   0.345E+01 -.311E+01 -.372E+01   -.578E-05 -.146E-05 0.532E-05
   0.105E+03 0.253E+02 -.242E+01   -.111E+03 -.264E+02 0.273E+01   0.591E+01 0.109E+01 -.307E+00   -.165E-04 -.927E-05 0.297E-05
   -.232E+02 -.756E+02 0.737E+02   0.199E+02 0.787E+02 -.774E+02   0.338E+01 -.314E+01 0.376E+01   0.562E-05 0.754E-05 -.105E-04
   0.432E+02 -.658E+02 -.805E+02   -.457E+02 0.692E+02 0.848E+02   0.248E+01 -.342E+01 -.430E+01   -.791E-05 0.124E-04 0.150E-04
   0.307E+02 -.136E+03 0.223E+03   -.250E+02 0.121E+03 -.205E+03   -.570E+01 0.153E+02 -.173E+02   -.492E-04 0.347E-04 -.866E-04
   0.232E+03 0.164E+03 0.614E+02   -.212E+03 -.161E+03 -.627E+02   -.197E+02 -.308E+01 0.128E+01   -.772E-04 0.116E-04 0.275E-04
   -.408E+02 0.233E+03 -.159E+03   0.325E+02 -.222E+03 0.146E+03   0.835E+01 -.113E+02 0.129E+02   0.608E-04 -.300E-04 0.513E-04
   0.386E+02 -.195E+03 -.198E+03   -.310E+02 0.186E+03 0.186E+03   -.767E+01 0.965E+01 0.122E+02   -.416E-04 0.353E-04 0.549E-04
   -.253E+03 -.946E+02 0.671E+02   0.233E+03 0.920E+02 -.687E+02   0.204E+02 0.257E+01 0.156E+01   0.715E-04 -.224E-04 0.284E-04
   -.123E+03 0.405E+03 0.422E+03   0.836E+02 -.388E+03 -.424E+03   0.393E+02 -.171E+02 0.186E+01   0.185E-04 -.290E-04 -.454E-04
   -.749E+02 0.134E+03 0.226E+03   0.738E+02 -.131E+03 -.222E+03   0.114E+01 -.243E+01 -.470E+01   0.131E-04 0.751E-05 0.153E-04
 -----------------------------------------------------------------------------------------------
   -.329E+02 0.352E+01 0.610E+01   -.242E-12 0.256E-12 -.426E-12   0.329E+02 -.352E+01 -.610E+01   -.121E-03 0.986E-04 0.108E-03
 
 
 POSITION                                       TOTAL-FORCE (eV/Angst)
 -----------------------------------------------------------------------------------
      9.11904     13.19266      7.98704         0.043613     -0.320529      0.091299
      8.75875     11.31222      6.55140         0.035660      0.008569      0.104985
      9.11624     10.48468      7.61029        -0.097902      0.114282     -0.182648
      9.47459     12.30603      8.99730        -0.279865      0.436682     -0.757292
      5.86694      9.53439     11.36602         0.012840      0.023157      0.012275
      8.75715     12.69444      6.73519         0.206778      0.276669      0.727421
     10.46158      6.59100     13.49490         0.019767     -0.005176      0.011182
      9.94203      7.43809     12.52376        -0.034578      0.028858     -0.045495
     12.04547      8.38666     12.11872        -0.009434      0.018426     -0.013633
     12.61928      7.55238     13.08448        -0.000711      0.018031     -0.016074
     14.79299     10.57118     10.69264        -0.010399     -0.004604     -0.000969
     14.01643     11.32257      9.80881        -0.011605      0.027644     -0.026682
     12.65158     11.07272      9.73048         0.016934     -0.050902      0.062462
     12.79043      9.38554     11.34657        -0.018598      0.008770     -0.008093
     14.16878      9.59490     11.46294         0.002745      0.007351     -0.003450
     11.82695      6.64488     13.78060        -0.028540     -0.002758     -0.004340
      7.24231      9.77330     11.28348        -0.009269     -0.036326     -0.009721
      8.15819     12.44233     13.81164         0.017311      0.002542     -0.000419
      9.52399     12.52132     13.53212        -0.005674      0.023555      0.016870
     10.05904     11.71816     12.53361         0.012350     -0.000493     -0.011302
      7.96508     10.76003     12.08522         0.014541      0.006897      0.018556
      7.38092     11.55121     13.07965        -0.016467     -0.007981     -0.009137
      7.45796      8.11597      9.64469         0.029090      0.017344     -0.003577
      6.09730      7.83470      9.68863        -0.036176     -0.004496     -0.004394
      5.28440      8.55710     10.56432         0.013233     -0.021226     -0.019376
      9.79795      5.90212     14.01497        -0.003394     -0.001575     -0.000098
     12.26685      5.99367     14.53463         0.001786     -0.003367      0.004043
     13.68484      7.61538     13.29576        -0.002045      0.000519      0.000621
     10.84507      7.24677      9.22597         0.003850     -0.034788     -0.008145
      6.31582     11.46138     13.28407        -0.001857      0.003665      0.004618
      8.88327      7.42377     12.27295        -0.001324     -0.012468      0.007583
      8.47853     13.36665      5.92453         0.033132      0.132184      0.129758
      9.12855     14.26265      8.19005        -0.018593     -1.136492     -0.244224
      9.76183     12.67176      9.98145        -0.040434      0.145180     -0.085346
     11.38256      8.36174      8.29610         0.041756     -0.049373      0.017286
     14.75349      8.99278     12.15530         0.005673      0.002258     -0.000215
     14.45552     12.09620      9.18096         0.012026      0.001147     -0.002013
      9.11405      9.40258      7.49376         0.001076     -0.010413      0.013149
      8.12287      7.57771      8.97051         0.004426     -0.026923      0.005467
      5.68876      7.06123      9.04041        -0.003121     -0.009926      0.001834
     15.86530     10.74076     10.77851        -0.000368      0.004471     -0.000847
     11.11794     11.75383     12.28812         0.018071     -0.007716      0.013422
      8.48240     10.86572      5.59722        -0.012955      0.085854     -0.010640
     10.17895     13.19691     14.08003         0.003374      0.001419      0.004003
      5.25320     10.11370     12.05309        -0.005528     -0.005499      0.001598
      4.21445      8.36275     10.62101        -0.005823     -0.004925      0.001231
     12.01813     11.63958      9.05085         0.041582      0.002976     -0.013486
      7.70887     13.05934     14.58823        -0.002696      0.004025      0.008438
      9.48490     10.95884      8.82805         0.045167      0.211541      0.240528
      8.03610      9.06122     10.42169        -0.138191     -0.047850      0.007496
     10.70414      8.32170     11.83465        -0.011929     -0.028947      0.028180
      9.30896     10.85100     11.80824        -0.018420      0.082902      0.058135
     12.02768     10.13012     10.47953         0.085695     -0.004990      0.024576
     10.61480      8.11252      8.84309        -0.013949      0.074592     -0.010727
     10.01771      9.61740     10.38685         0.117372      0.068238     -0.124675
 -----------------------------------------------------------------------------------
    total drift:                                0.006651     -0.002826      0.003372


--------------------------------------------------------------------------------------------------------



  FREE ENERGIE OF THE ION-ELECTRON SYSTEM (eV)
  ---------------------------------------------------
  free  energy   TOTEN  =      -377.47386122 eV

  energy  without entropy=     -377.47386122  energy(sigma->0) =     -377.47386122
 


--------------------------------------------------------------------------------------------------------


    POTLOK:  cpu time    7.49: real time    7.52


--------------------------------------------------------------------------------------------------------


 writing wavefunctions
     LOOP+:  cpu time 1022.94: real time 1063.76
    4ORBIT:  cpu time    0.00: real time    0.00

 total amount of memory used by VASP on root node   877132. kBytes
========================================================================

   base      :      30000. kBytes
   nonlr-proj:      19361. kBytes
   fftplans  :     269516. kBytes
   grid      :     534988. kBytes
   one-center:       1710. kBytes
   wavefun   :      21557. kBytes
 
  
  
 General timing and accounting informations for this job:
 ========================================================
  
                  Total CPU time used (sec):     1276.806
                            User time (sec):     1130.105
                          System time (sec):      146.701
                         Elapsed time (sec):     1320.852
  
                   Maximum memory used (kb):     1490676.
                   Average memory used (kb):           0.
  
                          Minor page faults:      7034584
                          Major page faults:            1
                 Voluntary context switches:       276739
