<?xml version="1.0" encoding="ISO-8859-1"?>
<modeling>
 <generator>
  <i name="program" type="string">vasp </i>
  <i name="version" type="string">5.3.5  </i>
  <i name="subversion" type="string">31Mar14 (build Apr 08 2014 12:00:03) complex                          parallel </i>
  <i name="platform" type="string">NSC-NSCPATCH-BUILD02 </i>
  <i name="date" type="string">2017 03 15 </i>
  <i name="time" type="string">18:38:23 </i>
 </generator>
 <incar>
  <i type="string" name="SYSTEM"> c2_oh2_ruthenium_mol</i>
  <i type="int" name="ISTART">     0</i>
  <i type="string" name="PREC">accurate</i>
  <i type="int" name="IALGO">    38</i>
  <i type="logical" name="ADDGRID"> T  </i>
  <i type="int" name="ISPIN">     2</i>
  <i name="BMIX">      2.00000000</i>
  <i type="int" name="ICHARG">     2</i>
  <i name="EDIFF">      0.00001000</i>
  <i name="EDIFFG">     -0.01000000</i>
  <i name="ENCUT">    700.00000000</i>
  <i name="POTIM">      0.50000000</i>
  <i name="NUPDOWN">      0.00000000</i>
  <i name="NELECT">    166.00000000</i>
  <i type="string" name="LREAL"> Auto</i>
  <i name="TIME">      0.05000000</i>
  <i type="int" name="ISMEAR">     0</i>
  <i name="SIGMA">      0.01000000</i>
  <i type="int" name="ICORELEVEL">     2</i>
  <i type="int" name="CLNT">     1</i>
  <i type="int" name="CLN">     1</i>
  <i type="int" name="INCAR     ">     0</i>
  <i name="CLZ">      0.50000000</i>
 </incar>
 <kpoints>
  <generation param="Monkhorst-Pack">
   <v type="int" name="divisions">       1        1        1 </v>
   <v name="usershift">      0.00000000       0.00000000       0.00000000 </v>
   <v name="genvec1">      1.00000000       0.00000000       0.00000000 </v>
   <v name="genvec2">      0.00000000       1.00000000       0.00000000 </v>
   <v name="genvec3">      0.00000000       0.00000000       1.00000000 </v>
   <v name="shift">      0.00000000       0.00000000       0.00000000 </v>
  </generation>
  <varray name="kpointlist" >
   <v>       0.00000000       0.00000000       0.00000000 </v>
  </varray>
  <varray name="weights" >
   <v>       1.00000000 </v>
  </varray>
 </kpoints>
 <parameters>
  <separator name="general" >
   <i type="string" name="SYSTEM">c2_oh2_ruthenium_mol</i>
   <i type="logical" name="LCOMPAT"> F  </i>
  </separator>
  <separator name="electronic" >
   <i type="string" name="PREC">accura</i>
   <i name="ENMAX">    700.00000000</i>
   <i name="ENAUG">    946.76800000</i>
   <i name="EDIFF">      0.00001000</i>
   <i type="int" name="IALGO">    38</i>
   <i type="int" name="IWAVPR">    10</i>
   <i type="int" name="NBANDS">   128</i>
   <i name="NELECT">    166.00000000</i>
   <i type="int" name="TURBO">     0</i>
   <i type="int" name="IRESTART">     0</i>
   <i type="int" name="NREBOOT">     0</i>
   <i type="int" name="NMIN">     0</i>
   <i name="EREF">      0.00000000</i>
   <separator name="electronic smearing" >
    <i type="int" name="ISMEAR">     0</i>
    <i name="SIGMA">      0.01000000</i>
    <i name="KSPACING">      0.50000000</i>
    <i type="logical" name="KGAMMA"> T  </i>
   </separator>
   <separator name="electronic projectors" >
    <i type="logical" name="LREAL"> T  </i>
    <v name="ROPT">     -0.00025000     -0.00025000     -0.00025000     -0.00025000     -0.00025000     -0.00025000</v>
    <i type="int" name="LMAXPAW">  -100</i>
    <i type="int" name="LMAXMIX">     2</i>
    <i type="logical" name="NLSPLINE"> F  </i>
   </separator>
   <separator name="electronic startup" >
    <i type="int" name="ISTART">     0</i>
    <i type="int" name="ICHARG">     2</i>
    <i type="int" name="INIWAV">     1</i>
   </separator>
   <separator name="electronic spin" >
    <i type="int" name="ISPIN">     2</i>
    <i type="logical" name="LNONCOLLINEAR"> F  </i>
    <v name="MAGMOM">      0.00000000      0.00000000      0.00000000      0.00000000      0.00000000      0.00000000      0.00000000      0.00000000      0.00000000      0.00000000      0.00000000      0.00000000      0.00000000      0.00000000      0.00000000      0.00000000      0.00000000      0.00000000      0.00000000      0.00000000
      0.00000000      0.00000000      0.00000000      0.00000000      0.00000000      0.00000000      0.00000000      0.00000000      0.00000000      0.00000000      0.00000000      0.00000000      0.00000000      0.00000000      0.00000000      0.00000000      0.00000000      0.00000000      0.00000000      0.00000000
      0.00000000      0.00000000      0.00000000      0.00000000      0.00000000      0.00000000      0.00000000      0.00000000      0.00000000      0.00000000      0.00000000      0.00000000      0.00000000      0.00000000      0.00000000</v>
    <i name="NUPDOWN">      0.00000000</i>
    <i type="logical" name="LSORBIT"> F  </i>
    <v name="SAXIS">      0.00000000      0.00000000      1.00000000</v>
    <i type="logical" name="LSPIRAL"> F  </i>
    <v name="QSPIRAL">      0.00000000      0.00000000      0.00000000</v>
    <i type="logical" name="LZEROZ"> F  </i>
   </separator>
   <separator name="electronic exchange-correlation" >
    <i type="logical" name="LASPH"> F  </i>
    <i type="logical" name="LMETAGGA"> F  </i>
   </separator>
   <separator name="electronic convergence" >
    <i type="int" name="NELM">    60</i>
    <i type="int" name="NELMDL">    -5</i>
    <i type="int" name="NELMIN">     2</i>
    <i name="ENINI">    700.00000000</i>
    <separator name="electronic convergence detail" >
     <i type="logical" name="LDIAG"> T  </i>
     <i type="logical" name="LSUBROT"> F  </i>
     <i name="WEIMIN">      0.00000000</i>
     <i name="EBREAK">      0.00000002</i>
     <i name="DEPER">      0.30000000</i>
     <i type="int" name="NRMM">     4</i>
     <i name="TIME">      0.05000000</i>
    </separator>
   </separator>
   <separator name="electronic mixer" >
    <i name="AMIX">      0.40000000</i>
    <i name="BMIX">      2.00000000</i>
    <i name="AMIN">      0.10000000</i>
    <i name="AMIX_MAG">      1.60000000</i>
    <i name="BMIX_MAG">      2.00000000</i>
    <separator name="electronic mixer details" >
     <i type="int" name="IMIX">     4</i>
     <i type="int" name="MAXMIX">   -45</i>
     <i name="WC">    100.00000000</i>
     <i type="int" name="INIMIX">     1</i>
     <i type="int" name="MIXPRE">     1</i>
     <i type="int" name="MREMOVE">     5</i>
    </separator>
   </separator>
   <separator name="electronic dipolcorrection" >
    <i type="logical" name="LDIPOL"> F  </i>
    <i type="logical" name="LMONO"> F  </i>
    <i type="int" name="IDIPOL">     0</i>
    <i name="EPSILON">      1.00000000</i>
    <v name="DIPOL">   -100.00000000   -100.00000000   -100.00000000</v>
    <i name="EFIELD">      0.00000000</i>
   </separator>
  </separator>
  <separator name="grids" >
   <i type="int" name="NGX">   180</i>
   <i type="int" name="NGY">   180</i>
   <i type="int" name="NGZ">   180</i>
   <i type="int" name="NGXF">   360</i>
   <i type="int" name="NGYF">   360</i>
   <i type="int" name="NGZF">   360</i>
   <i type="logical" name="ADDGRID"> T  </i>
  </separator>
  <separator name="ionic" >
   <i type="int" name="NSW">     0</i>
   <i type="int" name="IBRION">    -1</i>
   <i type="int" name="ISIF">     2</i>
   <i name="PSTRESS">      0.00000000</i>
   <i name="EDIFFG">     -0.01000000</i>
   <i type="int" name="NFREE">     0</i>
   <i name="POTIM">      0.50000000</i>
   <i name="SMASS">     -3.00000000</i>
   <i name="SCALEE">      1.00000000</i>
  </separator>
  <separator name="ionic md" >
   <i name="TEBEG">      0.00010000</i>
   <i name="TEEND">      0.00010000</i>
   <i type="int" name="NBLOCK">     1</i>
   <i type="int" name="KBLOCK">     1</i>
   <i type="int" name="NPACO">   256</i>
   <i name="APACO">     16.00000000</i>
  </separator>
  <separator name="symmetry" >
   <i type="int" name="ISYM">     2</i>
   <i name="SYMPREC">      0.00001000</i>
  </separator>
  <separator name="dos" >
   <i type="logical" name="LORBIT"> F  </i>
   <v name="RWIGS">     -1.00000000     -1.00000000     -1.00000000     -1.00000000     -1.00000000     -1.00000000</v>
   <i type="int" name="NEDOS">   301</i>
   <i name="EMIN">     10.00000000</i>
   <i name="EMAX">    -10.00000000</i>
   <i name="EFERMI">      0.00000000</i>
  </separator>
  <separator name="writing" >
   <i type="int" name="NWRITE">     2</i>
   <i type="logical" name="LWAVE"> T  </i>
   <i type="logical" name="LCHARG"> T  </i>
   <i type="logical" name="LPARD"> F  </i>
   <i type="logical" name="LVTOT"> F  </i>
   <i type="logical" name="LVHAR"> F  </i>
   <i type="logical" name="LELF"> F  </i>
   <i type="logical" name="LOPTICS"> F  </i>
   <v name="STM">      0.00000000      0.00000000      0.00000000      0.00000000      0.00000000      0.00000000      0.00000000</v>
  </separator>
  <separator name="performance" >
   <i type="int" name="NPAR">    64</i>
   <i type="int" name="NSIM">     4</i>
   <i type="int" name="NBLK">    -1</i>
   <i type="logical" name="LPLANE"> T  </i>
   <i type="logical" name="LSCALAPACK"> T  </i>
   <i type="logical" name="LSCAAWARE"> F  </i>
   <i type="logical" name="LSCALU"> F  </i>
   <i type="logical" name="LASYNC"> F  </i>
   <i type="logical" name="LORBITALREAL"> F  </i>
  </separator>
  <separator name="miscellaneous" >
   <i type="int" name="IDIOT">     3</i>
   <i type="logical" name="LMUSIC"> F  </i>
   <v name="POMASS">     12.01100000     12.01100000      1.00000000     14.00100000     16.00000000    101.07000000</v>
   <v name="DARWINR">      0.00000000      0.00000000      0.00000000      0.00000000      0.00000000      0.00000000</v>
   <v name="DARWINV">      1.00000000      1.00000000      1.00000000      1.00000000      1.00000000      1.00000000</v>
   <i type="logical" name="LCORR"> T  </i>
  </separator>
  <i type="logical" name="GGA_COMPAT"> T  </i>
  <i type="logical" name="LBERRY"> F  </i>
  <i type="int" name="ICORELEVEL">     2</i>
  <i type="int" name="CLNT">     1</i>
  <i type="int" name="CLN">     1</i>
  <i type="int" name="CLL">     0</i>
  <i name="CLZ">      0.50000000</i>
  <i type="logical" name="LDAU"> F  </i>
  <i type="int" name="I_CONSTRAINED_M">     0</i>
  <separator name="electronic exchange-correlation" >
   <i type="string" name="GGA">--</i>
   <i type="int" name="VOSKOWN">     0</i>
   <i type="logical" name="LHFCALC"> F  </i>
   <i type="string" name="PRECFOCK"></i>
   <i type="logical" name="LSYMGRAD"> F  </i>
   <i type="logical" name="LHFONE"> F  </i>
   <i type="logical" name="LRHFCALC"> F  </i>
   <i type="logical" name="LTHOMAS"> F  </i>
   <i type="logical" name="LMODELHF"> F  </i>
   <i name="ENCUT4O">     -1.00000000</i>
   <i type="int" name="EXXOEP">     0</i>
   <i type="int" name="FOURORBIT">     0</i>
   <i name="AEXX">      0.00000000</i>
   <i name="HFALPHA">      0.00000000</i>
   <i name="MCALPHA">      0.00000000</i>
   <i name="ALDAX">      1.00000000</i>
   <i name="AGGAX">      1.00000000</i>
   <i name="ALDAC">      1.00000000</i>
   <i name="AGGAC">      1.00000000</i>
   <i type="int" name="NKREDX">     1</i>
   <i type="int" name="NKREDY">     1</i>
   <i type="int" name="NKREDZ">     1</i>
   <i type="logical" name="SHIFTRED"> F  </i>
   <i type="logical" name="ODDONLY"> F  </i>
   <i type="logical" name="EVENONLY"> F  </i>
   <i type="int" name="LMAXFOCK">     0</i>
   <i type="int" name="NMAXFOCKAE">     0</i>
   <i type="logical" name="LFOCKAEDFT"> F  </i>
   <i name="HFSCREEN">      0.00000000</i>
   <i name="HFSCREENC">      0.00000000</i>
   <i type="int" name="NBANDSGWLOW">     0</i>
  </separator>
  <separator name="vdW DFT" >
   <i type="logical" name="LUSE_VDW"> F  </i>
   <i name="Zab_VDW">     -0.84910000</i>
   <i name="PARAM1">      0.12340000</i>
   <i name="PARAM2">      1.00000000</i>
   <i name="PARAM3">      0.00000000</i>
  </separator>
  <separator name="model GW" >
   <i type="int" name="MODEL_GW">     0</i>
   <i name="MODEL_EPS0">     87.27272727</i>
   <i name="MODEL_ALPHA">      1.00000000</i>
  </separator>
  <separator name="linear response parameters" >
   <i type="logical" name="LEPSILON"> F  </i>
   <i type="logical" name="LRPA"> F  </i>
   <i type="logical" name="LNABLA"> F  </i>
   <i type="logical" name="LVEL"> F  </i>
   <i type="int" name="KINTER">     0</i>
   <i name="CSHIFT">      0.10000000</i>
   <i name="OMEGAMAX">     -1.00000000</i>
   <i name="DEG_THRESHOLD">      0.00200000</i>
  </separator>
  <separator name="orbital magnetization" >
   <i type="logical" name="NUCIND"> F  </i>
   <v name="MAGPOS">      0.00000000      0.00000000      0.00000000</v>
   <i type="logical" name="LNICSALL"> T  </i>
   <i type="logical" name="ORBITALMAG"> F  </i>
   <i type="logical" name="LMAGBLOCH"> F  </i>
   <i type="logical" name="LCHIMAG"> F  </i>
   <i type="logical" name="LGAUGE"> T  </i>
   <i type="int" name="MAGATOM">     0</i>
   <v name="MAGDIPOL">      0.00000000      0.00000000      0.00000000</v>
   <v name="AVECCONST">      0.00000000      0.00000000      0.00000000</v>
  </separator>
  <separator name="response functions" >
   <i type="logical" name="LADDER"> F  </i>
   <i type="logical" name="LFXC"> F  </i>
   <i type="logical" name="LHARTREE"> T  </i>
   <i type="int" name="IBSE">     0</i>
   <i type="logical" name="LTCTE"> F  </i>
   <i type="logical" name="LTETE"> F  </i>
   <i type="logical" name="LTRIPLET"> F  </i>
   <i type="logical" name="LFXCEPS"> F  </i>
   <i type="logical" name="LFXHEG"> F  </i>
   <i type="logical" name="L2ORDER"> F  </i>
   <i type="logical" name="LUSEW"> F  </i>
   <i name="ENCUTGW">     -2.00000000</i>
   <i name="ENCUTGWSOFT">     -2.00000000</i>
   <i name="ENCUTLF">     -1.00000000</i>
   <i type="int" name="LMAXMP2">    -1</i>
   <i name="SCISSOR">      0.00000000</i>
   <i type="int" name="NOMEGA">     0</i>
   <i type="int" name="NOMEGAR">     0</i>
   <i type="int" name="NBANDSGW">    -1</i>
   <i type="int" name="NBANDSO">    -1</i>
   <i type="int" name="NBANDSV">    -1</i>
   <i type="int" name="NELM">     1</i>
   <i type="int" name="DIM">     3</i>
   <i type="int" name="ANTIRES">     0</i>
   <i name="OMEGAMAX">    -30.00000000</i>
   <i name="OMEGAMIN">    -30.00000000</i>
   <i name="OMEGATL">   -200.00000000</i>
   <i type="int" name="OMEGAGRID">     0</i>
   <i name="CSHIFT">     -0.10000000</i>
   <i type="logical" name="SELFENERGY"> F  </i>
   <i type="logical" name="LSPECTRAL"> F  </i>
   <i type="logical" name="ODDONLYGW"> F  </i>
   <i type="logical" name="EVENONLYGW"> F  </i>
   <i type="int" name="NKREDLFX">     1</i>
   <i type="int" name="NKREDLFY">     1</i>
   <i type="int" name="NKREDLFZ">     1</i>
   <i type="int" name="MAXMEM">  1800</i>
   <i type="int" name="TELESCOPE">     0</i>
   <i type="int" name="TAUPAR">     1</i>
  </separator>
  <separator name="External order field" >
   <i name="OFIELD_KAPPA">      0.00000000</i>
   <v name="OFIELD_K">      0.00000000      0.00000000      0.00000000</v>
   <i name="OFIELD_Q6_NEAR">      0.00000000</i>
   <i name="OFIELD_Q6_FAR">      0.00000000</i>
   <i name="OFIELD_A">      0.00000000</i>
  </separator>
 </parameters>
 <atominfo>
  <atoms>      55 </atoms>
  <types>       6 </types>
  <array name="atoms" >
   <dimension dim="1">ion</dimension>
   <field type="string">element</field>
   <field type="int">atomtype</field>
   <set>
    <rc><c>C </c><c>   1</c></rc>
    <rc><c>C </c><c>   2</c></rc>
    <rc><c>C </c><c>   2</c></rc>
    <rc><c>C </c><c>   2</c></rc>
    <rc><c>C </c><c>   2</c></rc>
    <rc><c>C </c><c>   2</c></rc>
    <rc><c>C </c><c>   2</c></rc>
    <rc><c>C </c><c>   2</c></rc>
    <rc><c>C </c><c>   2</c></rc>
    <rc><c>C </c><c>   2</c></rc>
    <rc><c>C </c><c>   2</c></rc>
    <rc><c>C </c><c>   2</c></rc>
    <rc><c>C </c><c>   2</c></rc>
    <rc><c>C </c><c>   2</c></rc>
    <rc><c>C </c><c>   2</c></rc>
    <rc><c>C </c><c>   2</c></rc>
    <rc><c>C </c><c>   2</c></rc>
    <rc><c>C </c><c>   2</c></rc>
    <rc><c>C </c><c>   2</c></rc>
    <rc><c>C </c><c>   2</c></rc>
    <rc><c>C </c><c>   2</c></rc>
    <rc><c>C </c><c>   2</c></rc>
    <rc><c>C </c><c>   2</c></rc>
    <rc><c>C </c><c>   2</c></rc>
    <rc><c>C </c><c>   2</c></rc>
    <rc><c>H </c><c>   3</c></rc>
    <rc><c>H </c><c>   3</c></rc>
    <rc><c>H </c><c>   3</c></rc>
    <rc><c>H </c><c>   3</c></rc>
    <rc><c>H </c><c>   3</c></rc>
    <rc><c>H </c><c>   3</c></rc>
    <rc><c>H </c><c>   3</c></rc>
    <rc><c>H </c><c>   3</c></rc>
    <rc><c>H </c><c>   3</c></rc>
    <rc><c>H </c><c>   3</c></rc>
    <rc><c>H </c><c>   3</c></rc>
    <rc><c>H </c><c>   3</c></rc>
    <rc><c>H </c><c>   3</c></rc>
    <rc><c>H </c><c>   3</c></rc>
    <rc><c>H </c><c>   3</c></rc>
    <rc><c>H </c><c>   3</c></rc>
    <rc><c>H </c><c>   3</c></rc>
    <rc><c>H </c><c>   3</c></rc>
    <rc><c>H </c><c>   3</c></rc>
    <rc><c>H </c><c>   3</c></rc>
    <rc><c>H </c><c>   3</c></rc>
    <rc><c>H </c><c>   3</c></rc>
    <rc><c>H </c><c>   3</c></rc>
    <rc><c>N </c><c>   4</c></rc>
    <rc><c>N </c><c>   4</c></rc>
    <rc><c>N </c><c>   4</c></rc>
    <rc><c>N </c><c>   4</c></rc>
    <rc><c>N </c><c>   4</c></rc>
    <rc><c>O </c><c>   5</c></rc>
    <rc><c>Ru</c><c>   6</c></rc>
   </set>
  </array>
  <array name="atomtypes" >
   <dimension dim="1">type</dimension>
   <field type="int">atomspertype</field>
   <field type="string">element</field>
   <field>mass</field>
   <field>valence</field>
   <field type="string">pseudopotential</field>
   <set>
    <rc><c>   1</c><c>C </c><c>     12.01100000</c><c>      4.50000000</c><c>  PAW_PBE C_h 06Feb2004                 </c></rc>
    <rc><c>  24</c><c>C </c><c>     12.01100000</c><c>      4.00000000</c><c>  PAW_PBE C_h 06Feb2004                 </c></rc>
    <rc><c>  23</c><c>H </c><c>      1.00000000</c><c>      1.00000000</c><c>  PAW_PBE H 15Jun2001                   </c></rc>
    <rc><c>   5</c><c>N </c><c>     14.00100000</c><c>      5.00000000</c><c>  PAW_PBE N_h 06Feb2004                 </c></rc>
    <rc><c>   1</c><c>O </c><c>     16.00000000</c><c>      6.00000000</c><c>  PAW_PBE O_h 06Feb2004                 </c></rc>
    <rc><c>   1</c><c>Ru</c><c>    101.07000000</c><c>     14.00000000</c><c>  PAW_PBE Ru_pv 28Jan2005               </c></rc>
   </set>
  </array>
 </atominfo>
 <structure name="initialpos" >
  <crystal>
   <varray name="basis" >
    <v>      20.00000000       0.00000000       0.00000000 </v>
    <v>       0.00000000      20.00000000       0.00000000 </v>
    <v>       0.00000000       0.00000000      20.00000000 </v>
   </varray>
   <i name="volume">   8000.00000000 </i>
   <varray name="rec_basis" >
    <v>       0.05000000       0.00000000       0.00000000 </v>
    <v>       0.00000000       0.05000000       0.00000000 </v>
    <v>       0.00000000       0.00000000       0.05000000 </v>
   </varray>
  </crystal>
  <varray name="positions" >
   <v>       0.45595175       0.65963312       0.39935201 </v>
   <v>       0.43793752       0.56561110       0.32757008 </v>
   <v>       0.45581208       0.52423376       0.38051465 </v>
   <v>       0.47372925       0.61530131       0.44986522 </v>
   <v>       0.29334713       0.47671938       0.56830116 </v>
   <v>       0.43785737       0.63472201       0.33675972 </v>
   <v>       0.52307882       0.32955005       0.67474498 </v>
   <v>       0.49710163       0.37190466       0.62618823 </v>
   <v>       0.60227374       0.41933300       0.60593616 </v>
   <v>       0.63096398       0.37761922       0.65422416 </v>
   <v>       0.73964927       0.52855915       0.53463181 </v>
   <v>       0.70082162       0.56612858       0.49044049 </v>
   <v>       0.63257913       0.55363620       0.48652424 </v>
   <v>       0.63952130       0.46927713       0.56732841 </v>
   <v>       0.70843899       0.47974495       0.57314689 </v>
   <v>       0.59134754       0.33224398       0.68903016 </v>
   <v>       0.36211554       0.48866484       0.56417415 </v>
   <v>       0.40790931       0.62211625       0.69058213 </v>
   <v>       0.47619960       0.62606623       0.67660612 </v>
   <v>       0.50295190       0.58590820       0.62668073 </v>
   <v>       0.39825425       0.53800137       0.60426081 </v>
   <v>       0.36904589       0.57756069       0.65398228 </v>
   <v>       0.37289802       0.40579857       0.48223443 </v>
   <v>       0.30486503       0.39173492       0.48443166 </v>
   <v>       0.26422003       0.42785518       0.52821594 </v>
   <v>       0.48989745       0.29510618       0.70074864 </v>
   <v>       0.61334240       0.29968355       0.72673159 </v>
   <v>       0.68424189       0.38076917       0.66478776 </v>
   <v>       0.54225374       0.36233861       0.46129841 </v>
   <v>       0.31579090       0.57306911       0.66420366 </v>
   <v>       0.44416348       0.37118871       0.61364770 </v>
   <v>       0.42392665       0.66833230       0.29622671 </v>
   <v>       0.45642762       0.71313270       0.40950260 </v>
   <v>       0.48809132       0.63358802       0.49907234 </v>
   <v>       0.56912778       0.41808713       0.41480476 </v>
   <v>       0.73767440       0.44963919       0.60776512 </v>
   <v>       0.72277620       0.60481012       0.45904817 </v>
   <v>       0.45570253       0.47012894       0.37468790 </v>
   <v>       0.40614333       0.37888556       0.44852541 </v>
   <v>       0.28443799       0.35306162       0.45202062 </v>
   <v>       0.79326502       0.53703787       0.53892527 </v>
   <v>       0.55589708       0.58769132       0.61440612 </v>
   <v>       0.42412006       0.54328620       0.27986105 </v>
   <v>       0.50894741       0.65984570       0.70400156 </v>
   <v>       0.26265982       0.50568523       0.60265428 </v>
   <v>       0.21072272       0.41813760       0.53105039 </v>
   <v>       0.60090654       0.58197914       0.45254259 </v>
   <v>       0.38544357       0.65296704       0.72941133 </v>
   <v>       0.47424490       0.54794204       0.44140236 </v>
   <v>       0.40180479       0.45306079       0.52108436 </v>
   <v>       0.53520702       0.41608490       0.59173240 </v>
   <v>       0.46544808       0.54254992       0.59041194 </v>
   <v>       0.60138410       0.50650621       0.52397638 </v>
   <v>       0.53073984       0.40562607       0.44215451 </v>
   <v>       0.50088568       0.48087016       0.51934246 </v>
  </varray>
  <varray name="selective"  type="logical" >
   <v type="logical" >  T  T  T </v>
   <v type="logical" >  T  T  T </v>
   <v type="logical" >  T  T  T </v>
   <v type="logical" >  T  T  T </v>
   <v type="logical" >  T  T  T </v>
   <v type="logical" >  T  T  T </v>
   <v type="logical" >  T  T  T </v>
   <v type="logical" >  T  T  T </v>
   <v type="logical" >  T  T  T </v>
   <v type="logical" >  T  T  T </v>
   <v type="logical" >  T  T  T </v>
   <v type="logical" >  T  T  T </v>
   <v type="logical" >  T  T  T </v>
   <v type="logical" >  T  T  T </v>
   <v type="logical" >  T  T  T </v>
   <v type="logical" >  T  T  T </v>
   <v type="logical" >  T  T  T </v>
   <v type="logical" >  T  T  T </v>
   <v type="logical" >  T  T  T </v>
   <v type="logical" >  T  T  T </v>
   <v type="logical" >  T  T  T </v>
   <v type="logical" >  T  T  T </v>
   <v type="logical" >  T  T  T </v>
   <v type="logical" >  T  T  T </v>
   <v type="logical" >  T  T  T </v>
   <v type="logical" >  T  T  T </v>
   <v type="logical" >  T  T  T </v>
   <v type="logical" >  T  T  T </v>
   <v type="logical" >  T  T  T </v>
   <v type="logical" >  T  T  T </v>
   <v type="logical" >  T  T  T </v>
   <v type="logical" >  T  T  T </v>
   <v type="logical" >  T  T  T </v>
   <v type="logical" >  T  T  T </v>
   <v type="logical" >  T  T  T </v>
   <v type="logical" >  T  T  T </v>
   <v type="logical" >  T  T  T </v>
   <v type="logical" >  T  T  T </v>
   <v type="logical" >  T  T  T </v>
   <v type="logical" >  T  T  T </v>
   <v type="logical" >  T  T  T </v>
   <v type="logical" >  T  T  T </v>
   <v type="logical" >  T  T  T </v>
   <v type="logical" >  T  T  T </v>
   <v type="logical" >  T  T  T </v>
   <v type="logical" >  T  T  T </v>
   <v type="logical" >  T  T  T </v>
   <v type="logical" >  T  T  T </v>
   <v type="logical" >  T  T  T </v>
   <v type="logical" >  T  T  T </v>
   <v type="logical" >  T  T  T </v>
   <v type="logical" >  T  T  T </v>
   <v type="logical" >  T  T  T </v>
   <v type="logical" >  T  T  T </v>
   <v type="logical" >  T  T  T </v>
  </varray>
  <nose>
   <v>      -3.00000000       0.00000000       0.00010000       0.00010000 </v>
  </nose>
 </structure>
 <calculation>
  <scstep>
   <time name="dav">   14.83   15.74</time>
   <time name="total">   22.38   23.34</time>
   <energy>
    <i name="alphaZ">     12.91687988 </i>
    <i name="ewald">  23273.40214594 </i>
    <i name="hartreedc"> -28875.69773024 </i>
    <i name="XCdc">    400.93343957 </i>
    <i name="pawpsdc">   5890.45591622 </i>
    <i name="pawaedc">  -5710.10246236 </i>
    <i name="eentropy">     -0.00003270 </i>
    <i name="bandstr">  -1676.27493481 </i>
    <i name="atom">   7593.39991119 </i>
    <i name="e_fr_energy">    909.03313270 </i>
    <i name="e_wo_entrp">    909.03316540 </i>
    <i name="e_0_energy">    909.03314905 </i>
   </energy>
  </scstep>
  <scstep>
   <time name="dav">   19.09   20.44</time>
   <time name="total">   19.11   20.45</time>
   <energy>
    <i name="e_fr_energy">    -68.33744107 </i>
    <i name="e_wo_entrp">    -68.33744107 </i>
    <i name="e_0_energy">    -68.33744107 </i>
   </energy>
  </scstep>
  <scstep>
   <time name="dav">   15.92   16.89</time>
   <time name="total">   15.94   16.90</time>
   <energy>
    <i name="e_fr_energy">   -393.05491236 </i>
    <i name="e_wo_entrp">   -393.05491236 </i>
    <i name="e_0_energy">   -393.05491236 </i>
   </energy>
  </scstep>
  <scstep>
   <time name="dav">   13.76   14.59</time>
   <time name="total">   13.78   14.61</time>
   <energy>
    <i name="e_fr_energy">   -411.84441083 </i>
    <i name="e_wo_entrp">   -411.84441083 </i>
    <i name="e_0_energy">   -411.84441083 </i>
   </energy>
  </scstep>
  <scstep>
   <time name="dav">   15.94   17.00</time>
   <time name="total">   21.14   22.22</time>
   <energy>
    <i name="e_fr_energy">   -412.06551377 </i>
    <i name="e_wo_entrp">   -412.06551377 </i>
    <i name="e_0_energy">   -412.06551377 </i>
   </energy>
  </scstep>
  <scstep>
   <time name="dav">   11.73   12.48</time>
   <time name="total">   24.54   25.34</time>
   <energy>
    <i name="e_fr_energy">   -394.19285820 </i>
    <i name="e_wo_entrp">   -394.19285820 </i>
    <i name="e_0_energy">   -394.19285820 </i>
   </energy>
  </scstep>
  <scstep>
   <time name="dav">   13.99   15.30</time>
   <time name="total">   26.41   28.14</time>
   <energy>
    <i name="e_fr_energy">   -383.27450799 </i>
    <i name="e_wo_entrp">   -383.27450799 </i>
    <i name="e_0_energy">   -383.27450799 </i>
   </energy>
  </scstep>
  <scstep>
   <time name="dav">   15.06   16.47</time>
   <time name="total">   27.89   29.33</time>
   <energy>
    <i name="e_fr_energy">   -378.93527589 </i>
    <i name="e_wo_entrp">   -378.93527589 </i>
    <i name="e_0_energy">   -378.93527589 </i>
   </energy>
  </scstep>
  <scstep>
   <time name="dav">   15.06   16.34</time>
   <time name="total">   27.57   29.13</time>
   <energy>
    <i name="e_fr_energy">   -377.73582297 </i>
    <i name="e_wo_entrp">   -377.73582297 </i>
    <i name="e_0_energy">   -377.73582297 </i>
   </energy>
  </scstep>
  <scstep>
   <time name="dav">   15.12   16.44</time>
   <time name="total">   28.03   29.38</time>
   <energy>
    <i name="e_fr_energy">   -377.67808694 </i>
    <i name="e_wo_entrp">   -377.67808694 </i>
    <i name="e_0_energy">   -377.67808694 </i>
   </energy>
  </scstep>
  <scstep>
   <time name="dav">   15.07   16.34</time>
   <time name="total">   27.81   29.11</time>
   <energy>
    <i name="e_fr_energy">   -377.57053769 </i>
    <i name="e_wo_entrp">   -377.57053769 </i>
    <i name="e_0_energy">   -377.57053769 </i>
   </energy>
  </scstep>
  <scstep>
   <time name="dav">   15.11   16.41</time>
   <time name="total">   27.75   29.31</time>
   <energy>
    <i name="e_fr_energy">   -377.48289601 </i>
    <i name="e_wo_entrp">   -377.48289601 </i>
    <i name="e_0_energy">   -377.48289601 </i>
   </energy>
  </scstep>
  <scstep>
   <time name="dav">   15.02   16.33</time>
   <time name="total">   27.93   29.28</time>
   <energy>
    <i name="e_fr_energy">   -377.45471675 </i>
    <i name="e_wo_entrp">   -377.45471675 </i>
    <i name="e_0_energy">   -377.45471675 </i>
   </energy>
  </scstep>
  <scstep>
   <time name="dav">   15.00   16.47</time>
   <time name="total">   27.86   29.38</time>
   <energy>
    <i name="e_fr_energy">   -377.43918975 </i>
    <i name="e_wo_entrp">   -377.43918975 </i>
    <i name="e_0_energy">   -377.43918975 </i>
   </energy>
  </scstep>
  <scstep>
   <time name="dav">   15.00   16.33</time>
   <time name="total">   27.76   29.16</time>
   <energy>
    <i name="e_fr_energy">   -377.44255804 </i>
    <i name="e_wo_entrp">   -377.44255804 </i>
    <i name="e_0_energy">   -377.44255804 </i>
   </energy>
  </scstep>
  <scstep>
   <time name="dav">   15.02   16.32</time>
   <time name="total">   27.89   29.38</time>
   <energy>
    <i name="e_fr_energy">   -377.45144294 </i>
    <i name="e_wo_entrp">   -377.45144294 </i>
    <i name="e_0_energy">   -377.45144294 </i>
   </energy>
  </scstep>
  <scstep>
   <time name="dav">   15.17   16.43</time>
   <time name="total">   28.03   29.35</time>
   <energy>
    <i name="e_fr_energy">   -377.45815365 </i>
    <i name="e_wo_entrp">   -377.45815365 </i>
    <i name="e_0_energy">   -377.45815365 </i>
   </energy>
  </scstep>
  <scstep>
   <time name="dav">   17.16   18.53</time>
   <time name="total">   30.23   31.62</time>
   <energy>
    <i name="e_fr_energy">   -377.46243467 </i>
    <i name="e_wo_entrp">   -377.46243467 </i>
    <i name="e_0_energy">   -377.46243467 </i>
   </energy>
  </scstep>
  <scstep>
   <time name="dav">   12.91   14.08</time>
   <time name="total">   25.83   27.03</time>
   <energy>
    <i name="e_fr_energy">   -377.46687476 </i>
    <i name="e_wo_entrp">   -377.46687476 </i>
    <i name="e_0_energy">   -377.46687476 </i>
   </energy>
  </scstep>
  <scstep>
   <time name="dav">   15.04   16.34</time>
   <time name="total">   27.90   29.27</time>
   <energy>
    <i name="e_fr_energy">   -377.46966678 </i>
    <i name="e_wo_entrp">   -377.46966678 </i>
    <i name="e_0_energy">   -377.46966678 </i>
   </energy>
  </scstep>
  <scstep>
   <time name="dav">   11.73   12.43</time>
   <time name="total">   24.56   25.34</time>
   <energy>
    <i name="e_fr_energy">   -377.47109823 </i>
    <i name="e_wo_entrp">   -377.47109823 </i>
    <i name="e_0_energy">   -377.47109823 </i>
   </energy>
  </scstep>
  <scstep>
   <time name="dav">   15.21   16.52</time>
   <time name="total">   28.07   29.44</time>
   <energy>
    <i name="e_fr_energy">   -377.47240286 </i>
    <i name="e_wo_entrp">   -377.47240286 </i>
    <i name="e_0_energy">   -377.47240286 </i>
   </energy>
  </scstep>
  <scstep>
   <time name="dav">    8.74    9.32</time>
   <time name="total">   21.78   22.42</time>
   <energy>
    <i name="e_fr_energy">   -377.47293419 </i>
    <i name="e_wo_entrp">   -377.47293419 </i>
    <i name="e_0_energy">   -377.47293419 </i>
   </energy>
  </scstep>
  <scstep>
   <time name="dav">   13.25   14.48</time>
   <time name="total">   26.08   27.35</time>
   <energy>
    <i name="e_fr_energy">   -377.47332606 </i>
    <i name="e_wo_entrp">   -377.47332606 </i>
    <i name="e_0_energy">   -377.47332606 </i>
   </energy>
  </scstep>
  <scstep>
   <time name="dav">   10.98   11.79</time>
   <time name="total">   23.80   24.70</time>
   <energy>
    <i name="e_fr_energy">   -377.47355638 </i>
    <i name="e_wo_entrp">   -377.47355638 </i>
    <i name="e_0_energy">   -377.47355638 </i>
   </energy>
  </scstep>
  <scstep>
   <time name="dav">   13.07   14.24</time>
   <time name="total">   25.92   27.14</time>
   <energy>
    <i name="e_fr_energy">   -377.47369987 </i>
    <i name="e_wo_entrp">   -377.47369987 </i>
    <i name="e_0_energy">   -377.47369987 </i>
   </energy>
  </scstep>
  <scstep>
   <time name="dav">   13.09   14.25</time>
   <time name="total">   26.30   27.50</time>
   <energy>
    <i name="e_fr_energy">   -377.47377093 </i>
    <i name="e_wo_entrp">   -377.47377093 </i>
    <i name="e_0_energy">   -377.47377093 </i>
   </energy>
  </scstep>
  <scstep>
   <time name="dav">   13.00   14.36</time>
   <time name="total">   25.83   27.25</time>
   <energy>
    <i name="e_fr_energy">   -377.47382255 </i>
    <i name="e_wo_entrp">   -377.47382255 </i>
    <i name="e_0_energy">   -377.47382255 </i>
   </energy>
  </scstep>
  <scstep>
   <time name="dav">   13.05   14.22</time>
   <time name="total">   25.97   27.21</time>
   <energy>
    <i name="e_fr_energy">   -377.47384343 </i>
    <i name="e_wo_entrp">   -377.47384343 </i>
    <i name="e_0_energy">   -377.47384343 </i>
   </energy>
  </scstep>
  <scstep>
   <time name="dav">   13.09   14.25</time>
   <time name="total">   26.12   27.32</time>
   <energy>
    <i name="e_fr_energy">   -377.47385407 </i>
    <i name="e_wo_entrp">   -377.47385407 </i>
    <i name="e_0_energy">   -377.47385407 </i>
   </energy>
  </scstep>
  <scstep>
   <time name="dav">   13.26   14.39</time>
   <time name="total">   20.80   21.96</time>
   <energy>
    <i name="alphaZ">     12.91687988 </i>
    <i name="ewald">  23273.40214594 </i>
    <i name="hartreedc"> -29121.33323372 </i>
    <i name="XCdc">    424.30828625 </i>
    <i name="pawpsdc">  81142.53425037 </i>
    <i name="pawaedc"> -80969.24990773 </i>
    <i name="eentropy">     -0.00000000 </i>
    <i name="bandstr">  -2733.45219341 </i>
    <i name="atom">   7593.39991119 </i>
    <i name="e_fr_energy">   -377.47386122 </i>
    <i name="e_wo_entrp">   -377.47386122 </i>
    <i name="e_0_energy">   -377.47386122 </i>
   </energy>
  </scstep>
  <structure>
   <crystal>
    <varray name="basis" >
     <v>      20.00000000       0.00000000       0.00000000 </v>
     <v>       0.00000000      20.00000000       0.00000000 </v>
     <v>       0.00000000       0.00000000      20.00000000 </v>
    </varray>
    <i name="volume">   8000.00000000 </i>
    <varray name="rec_basis" >
     <v>       0.05000000       0.00000000       0.00000000 </v>
     <v>       0.00000000       0.05000000       0.00000000 </v>
     <v>       0.00000000       0.00000000       0.05000000 </v>
    </varray>
   </crystal>
   <varray name="positions" >
    <v>       0.45595175       0.65963312       0.39935201 </v>
    <v>       0.43793752       0.56561110       0.32757008 </v>
    <v>       0.45581208       0.52423376       0.38051465 </v>
    <v>       0.47372925       0.61530131       0.44986522 </v>
    <v>       0.29334713       0.47671938       0.56830116 </v>
    <v>       0.43785737       0.63472201       0.33675972 </v>
    <v>       0.52307882       0.32955005       0.67474498 </v>
    <v>       0.49710163       0.37190466       0.62618823 </v>
    <v>       0.60227374       0.41933300       0.60593616 </v>
    <v>       0.63096398       0.37761922       0.65422416 </v>
    <v>       0.73964927       0.52855915       0.53463181 </v>
    <v>       0.70082162       0.56612858       0.49044049 </v>
    <v>       0.63257913       0.55363620       0.48652424 </v>
    <v>       0.63952130       0.46927713       0.56732841 </v>
    <v>       0.70843899       0.47974495       0.57314689 </v>
    <v>       0.59134754       0.33224398       0.68903016 </v>
    <v>       0.36211554       0.48866484       0.56417415 </v>
    <v>       0.40790931       0.62211625       0.69058213 </v>
    <v>       0.47619960       0.62606623       0.67660612 </v>
    <v>       0.50295190       0.58590820       0.62668073 </v>
    <v>       0.39825425       0.53800137       0.60426081 </v>
    <v>       0.36904589       0.57756069       0.65398228 </v>
    <v>       0.37289802       0.40579857       0.48223443 </v>
    <v>       0.30486503       0.39173492       0.48443166 </v>
    <v>       0.26422003       0.42785518       0.52821594 </v>
    <v>       0.48989745       0.29510618       0.70074864 </v>
    <v>       0.61334240       0.29968355       0.72673159 </v>
    <v>       0.68424189       0.38076917       0.66478776 </v>
    <v>       0.54225374       0.36233861       0.46129841 </v>
    <v>       0.31579090       0.57306911       0.66420366 </v>
    <v>       0.44416348       0.37118871       0.61364770 </v>
    <v>       0.42392665       0.66833230       0.29622671 </v>
    <v>       0.45642762       0.71313270       0.40950260 </v>
    <v>       0.48809132       0.63358802       0.49907234 </v>
    <v>       0.56912778       0.41808713       0.41480476 </v>
    <v>       0.73767440       0.44963919       0.60776512 </v>
    <v>       0.72277620       0.60481012       0.45904817 </v>
    <v>       0.45570253       0.47012894       0.37468790 </v>
    <v>       0.40614333       0.37888556       0.44852541 </v>
    <v>       0.28443799       0.35306162       0.45202062 </v>
    <v>       0.79326502       0.53703787       0.53892527 </v>
    <v>       0.55589708       0.58769132       0.61440612 </v>
    <v>       0.42412006       0.54328620       0.27986105 </v>
    <v>       0.50894741       0.65984570       0.70400156 </v>
    <v>       0.26265982       0.50568523       0.60265428 </v>
    <v>       0.21072272       0.41813760       0.53105039 </v>
    <v>       0.60090654       0.58197914       0.45254259 </v>
    <v>       0.38544357       0.65296704       0.72941133 </v>
    <v>       0.47424490       0.54794204       0.44140236 </v>
    <v>       0.40180479       0.45306079       0.52108436 </v>
    <v>       0.53520702       0.41608490       0.59173240 </v>
    <v>       0.46544808       0.54254992       0.59041194 </v>
    <v>       0.60138410       0.50650621       0.52397638 </v>
    <v>       0.53073984       0.40562607       0.44215451 </v>
    <v>       0.50088568       0.48087016       0.51934246 </v>
   </varray>
  </structure>
  <varray name="forces" >
   <v>       0.04361306      -0.32052883       0.09129887 </v>
   <v>       0.03565963       0.00856881       0.10498451 </v>
   <v>      -0.09790250       0.11428215      -0.18264768 </v>
   <v>      -0.27986510       0.43668179      -0.75729222 </v>
   <v>       0.01283959       0.02315734       0.01227474 </v>
   <v>       0.20677777       0.27666927       0.72742112 </v>
   <v>       0.01976745      -0.00517623       0.01118237 </v>
   <v>      -0.03457835       0.02885812      -0.04549549 </v>
   <v>      -0.00943446       0.01842630      -0.01363304 </v>
   <v>      -0.00071094       0.01803053      -0.01607363 </v>
   <v>      -0.01039941      -0.00460445      -0.00096891 </v>
   <v>      -0.01160498       0.02764352      -0.02668244 </v>
   <v>       0.01693409      -0.05090185       0.06246241 </v>
   <v>      -0.01859831       0.00876951      -0.00809279 </v>
   <v>       0.00274460       0.00735091      -0.00344977 </v>
   <v>      -0.02854019      -0.00275822      -0.00433977 </v>
   <v>      -0.00926860      -0.03632584      -0.00972117 </v>
   <v>       0.01731093       0.00254162      -0.00041913 </v>
   <v>      -0.00567410       0.02355466       0.01686952 </v>
   <v>       0.01234963      -0.00049337      -0.01130175 </v>
   <v>       0.01454052       0.00689662       0.01855635 </v>
   <v>      -0.01646663      -0.00798095      -0.00913706 </v>
   <v>       0.02909007       0.01734412      -0.00357706 </v>
   <v>      -0.03617614      -0.00449639      -0.00439425 </v>
   <v>       0.01323257      -0.02122550      -0.01937649 </v>
   <v>      -0.00339432      -0.00157477      -0.00009792 </v>
   <v>       0.00178612      -0.00336662       0.00404302 </v>
   <v>      -0.00204465       0.00051851       0.00062096 </v>
   <v>       0.00385011      -0.03478828      -0.00814523 </v>
   <v>      -0.00185654       0.00366479       0.00461841 </v>
   <v>      -0.00132431      -0.01246840       0.00758260 </v>
   <v>       0.03313218       0.13218366       0.12975842 </v>
   <v>      -0.01859262      -1.13649223      -0.24422444 </v>
   <v>      -0.04043373       0.14518019      -0.08534597 </v>
   <v>       0.04175603      -0.04937284       0.01728636 </v>
   <v>       0.00567332       0.00225839      -0.00021473 </v>
   <v>       0.01202629       0.00114658      -0.00201253 </v>
   <v>       0.00107620      -0.01041329       0.01314886 </v>
   <v>       0.00442578      -0.02692335       0.00546710 </v>
   <v>      -0.00312117      -0.00992557       0.00183420 </v>
   <v>      -0.00036843       0.00447095      -0.00084699 </v>
   <v>       0.01807070      -0.00771609       0.01342191 </v>
   <v>      -0.01295525       0.08585361      -0.01064003 </v>
   <v>       0.00337363       0.00141930       0.00400319 </v>
   <v>      -0.00552763      -0.00549920       0.00159839 </v>
   <v>      -0.00582275      -0.00492451       0.00123140 </v>
   <v>       0.04158173       0.00297588      -0.01348618 </v>
   <v>      -0.00269566       0.00402524       0.00843762 </v>
   <v>       0.04516655       0.21154083       0.24052785 </v>
   <v>      -0.13819139      -0.04785037       0.00749604 </v>
   <v>      -0.01192872      -0.02894716       0.02818045 </v>
   <v>      -0.01841972       0.08290152       0.05813462 </v>
   <v>       0.08569523      -0.00499005       0.02457644 </v>
   <v>      -0.01394938       0.07459199      -0.01072651 </v>
   <v>       0.11737215       0.06823766      -0.12467456 </v>
  </varray>
  <varray name="stress" >
   <v>      -2.53769578       0.08085686      -0.16208813 </v>
   <v>       0.08085687      -3.18562669       0.04466468 </v>
   <v>      -0.16208813       0.04466468      -3.05637171 </v>
  </varray>
  <energy>
   <i name="e_fr_energy">   -377.47386122 </i>
   <i name="e_wo_entrp">   -377.47386122 </i>
   <i name="e_0_energy">     -0.00000000 </i>
  </energy>
  <time name="totalsc"> 1022.94 1063.76</time>
  <eigenvalues>
   <array>
    <dimension dim="1">band</dimension>
    <dimension dim="2">kpoint</dimension>
    <dimension dim="3">spin</dimension>
    <field>eigene</field>
    <field>occ</field>
    <set>
     <set comment="spin 1">
      <set comment="kpoint 1">
       <r>  -48.9430    1.0000 </r>
       <r>  -48.8241    1.0000 </r>
       <r>  -48.5869    1.0000 </r>
       <r>  -29.1295    1.0000 </r>
       <r>  -27.3110    1.0000 </r>
       <r>  -26.8526    1.0000 </r>
       <r>  -26.7145    1.0000 </r>
       <r>  -26.1140    1.0000 </r>
       <r>  -26.0568    1.0000 </r>
       <r>  -24.0147    1.0000 </r>
       <r>  -22.5012    1.0000 </r>
       <r>  -22.4088    1.0000 </r>
       <r>  -22.3458    1.0000 </r>
       <r>  -22.2807    1.0000 </r>
       <r>  -22.2363    1.0000 </r>
       <r>  -22.1615    1.0000 </r>
       <r>  -22.1254    1.0000 </r>
       <r>  -20.7590    1.0000 </r>
       <r>  -20.7264    1.0000 </r>
       <r>  -19.2896    1.0000 </r>
       <r>  -19.1053    1.0000 </r>
       <r>  -18.6934    1.0000 </r>
       <r>  -18.6427    1.0000 </r>
       <r>  -18.4107    1.0000 </r>
       <r>  -18.3780    1.0000 </r>
       <r>  -17.5742    1.0000 </r>
       <r>  -17.5411    1.0000 </r>
       <r>  -17.2664    1.0000 </r>
       <r>  -17.2271    1.0000 </r>
       <r>  -16.8302    1.0000 </r>
       <r>  -16.6047    1.0000 </r>
       <r>  -15.9008    1.0000 </r>
       <r>  -15.6879    1.0000 </r>
       <r>  -15.5910    1.0000 </r>
       <r>  -14.9532    1.0000 </r>
       <r>  -14.7268    1.0000 </r>
       <r>  -14.6947    1.0000 </r>
       <r>  -14.6707    1.0000 </r>
       <r>  -14.6084    1.0000 </r>
       <r>  -14.0405    1.0000 </r>
       <r>  -13.9715    1.0000 </r>
       <r>  -13.9192    1.0000 </r>
       <r>  -13.7955    1.0000 </r>
       <r>  -13.7647    1.0000 </r>
       <r>  -13.7224    1.0000 </r>
       <r>  -13.6388    1.0000 </r>
       <r>  -13.5354    1.0000 </r>
       <r>  -13.3488    1.0000 </r>
       <r>  -13.1843    1.0000 </r>
       <r>  -13.0881    1.0000 </r>
       <r>  -12.9571    1.0000 </r>
       <r>  -12.8439    1.0000 </r>
       <r>  -12.7408    1.0000 </r>
       <r>  -12.7160    1.0000 </r>
       <r>  -12.5242    1.0000 </r>
       <r>  -12.4048    1.0000 </r>
       <r>  -12.3309    1.0000 </r>
       <r>  -12.1962    1.0000 </r>
       <r>  -12.0891    1.0000 </r>
       <r>  -12.0511    1.0000 </r>
       <r>  -11.4209    1.0000 </r>
       <r>  -11.2960    1.0000 </r>
       <r>  -11.2039    1.0000 </r>
       <r>  -11.0946    1.0000 </r>
       <r>  -11.0483    1.0000 </r>
       <r>  -11.0289    1.0000 </r>
       <r>  -11.0132    1.0000 </r>
       <r>  -10.6339    1.0000 </r>
       <r>  -10.3982    1.0000 </r>
       <r>  -10.1034    1.0000 </r>
       <r>  -10.0735    1.0000 </r>
       <r>   -9.8776    1.0000 </r>
       <r>   -9.7891    1.0000 </r>
       <r>   -9.7600    1.0000 </r>
       <r>   -9.7157    1.0000 </r>
       <r>   -9.6824    1.0000 </r>
       <r>   -9.6424    1.0000 </r>
       <r>   -9.4583    1.0000 </r>
       <r>   -8.3583    1.0000 </r>
       <r>   -8.3110    1.0000 </r>
       <r>   -7.3098    1.0000 </r>
       <r>   -7.1426    1.0000 </r>
       <r>   -7.0117    1.0000 </r>
       <r>   -5.2951    0.0000 </r>
       <r>   -4.9946    0.0000 </r>
       <r>   -4.9540    0.0000 </r>
       <r>   -4.8591    0.0000 </r>
       <r>   -4.2204    0.0000 </r>
       <r>   -4.0342    0.0000 </r>
       <r>   -3.9423    0.0000 </r>
       <r>   -3.8836    0.0000 </r>
       <r>   -3.7236    0.0000 </r>
       <r>   -3.0896    0.0000 </r>
       <r>   -2.8179    0.0000 </r>
       <r>   -2.7358    0.0000 </r>
       <r>   -2.6321    0.0000 </r>
       <r>   -2.0413    0.0000 </r>
       <r>   -1.6461    0.0000 </r>
       <r>   -1.5440    0.0000 </r>
       <r>   -1.4538    0.0000 </r>
       <r>   -1.2335    0.0000 </r>
       <r>   -1.1909    0.0000 </r>
       <r>   -1.1242    0.0000 </r>
       <r>   -0.9623    0.0000 </r>
       <r>   -0.8626    0.0000 </r>
       <r>   -0.8434    0.0000 </r>
       <r>   -0.7528    0.0000 </r>
       <r>   -0.6854    0.0000 </r>
       <r>   -0.5595    0.0000 </r>
       <r>   -0.4079    0.0000 </r>
       <r>   -0.3877    0.0000 </r>
       <r>   -0.3557    0.0000 </r>
       <r>   -0.2964    0.0000 </r>
       <r>   -0.1899    0.0000 </r>
       <r>   -0.1406    0.0000 </r>
       <r>   -0.0830    0.0000 </r>
       <r>    0.0125    0.0000 </r>
       <r>    0.1184    0.0000 </r>
       <r>    0.2281    0.0000 </r>
       <r>    0.3498    0.0000 </r>
       <r>    0.3922    0.0000 </r>
       <r>    0.4764    0.0000 </r>
       <r>    0.4830    0.0000 </r>
       <r>    0.5602    0.0000 </r>
       <r>    0.6063    0.0000 </r>
       <r>    0.6559    0.0000 </r>
       <r>    0.6942    0.0000 </r>
       <r>    0.7183    0.0000 </r>
      </set>
     </set>
     <set comment="spin 2">
      <set comment="kpoint 1">
       <r>  -48.9430    1.0000 </r>
       <r>  -48.8241    1.0000 </r>
       <r>  -48.5869    1.0000 </r>
       <r>  -29.1295    1.0000 </r>
       <r>  -27.3110    1.0000 </r>
       <r>  -26.8526    1.0000 </r>
       <r>  -26.7145    1.0000 </r>
       <r>  -26.1140    1.0000 </r>
       <r>  -26.0568    1.0000 </r>
       <r>  -24.0147    1.0000 </r>
       <r>  -22.5012    1.0000 </r>
       <r>  -22.4088    1.0000 </r>
       <r>  -22.3458    1.0000 </r>
       <r>  -22.2807    1.0000 </r>
       <r>  -22.2363    1.0000 </r>
       <r>  -22.1615    1.0000 </r>
       <r>  -22.1254    1.0000 </r>
       <r>  -20.7590    1.0000 </r>
       <r>  -20.7264    1.0000 </r>
       <r>  -19.2896    1.0000 </r>
       <r>  -19.1053    1.0000 </r>
       <r>  -18.6934    1.0000 </r>
       <r>  -18.6427    1.0000 </r>
       <r>  -18.4107    1.0000 </r>
       <r>  -18.3780    1.0000 </r>
       <r>  -17.5742    1.0000 </r>
       <r>  -17.5411    1.0000 </r>
       <r>  -17.2664    1.0000 </r>
       <r>  -17.2271    1.0000 </r>
       <r>  -16.8302    1.0000 </r>
       <r>  -16.6047    1.0000 </r>
       <r>  -15.9008    1.0000 </r>
       <r>  -15.6879    1.0000 </r>
       <r>  -15.5910    1.0000 </r>
       <r>  -14.9532    1.0000 </r>
       <r>  -14.7268    1.0000 </r>
       <r>  -14.6947    1.0000 </r>
       <r>  -14.6707    1.0000 </r>
       <r>  -14.6084    1.0000 </r>
       <r>  -14.0405    1.0000 </r>
       <r>  -13.9715    1.0000 </r>
       <r>  -13.9192    1.0000 </r>
       <r>  -13.7955    1.0000 </r>
       <r>  -13.7647    1.0000 </r>
       <r>  -13.7224    1.0000 </r>
       <r>  -13.6388    1.0000 </r>
       <r>  -13.5354    1.0000 </r>
       <r>  -13.3488    1.0000 </r>
       <r>  -13.1843    1.0000 </r>
       <r>  -13.0881    1.0000 </r>
       <r>  -12.9571    1.0000 </r>
       <r>  -12.8439    1.0000 </r>
       <r>  -12.7408    1.0000 </r>
       <r>  -12.7160    1.0000 </r>
       <r>  -12.5242    1.0000 </r>
       <r>  -12.4048    1.0000 </r>
       <r>  -12.3309    1.0000 </r>
       <r>  -12.1962    1.0000 </r>
       <r>  -12.0891    1.0000 </r>
       <r>  -12.0511    1.0000 </r>
       <r>  -11.4209    1.0000 </r>
       <r>  -11.2960    1.0000 </r>
       <r>  -11.2039    1.0000 </r>
       <r>  -11.0946    1.0000 </r>
       <r>  -11.0483    1.0000 </r>
       <r>  -11.0289    1.0000 </r>
       <r>  -11.0132    1.0000 </r>
       <r>  -10.6339    1.0000 </r>
       <r>  -10.3982    1.0000 </r>
       <r>  -10.1034    1.0000 </r>
       <r>  -10.0735    1.0000 </r>
       <r>   -9.8776    1.0000 </r>
       <r>   -9.7891    1.0000 </r>
       <r>   -9.7600    1.0000 </r>
       <r>   -9.7157    1.0000 </r>
       <r>   -9.6824    1.0000 </r>
       <r>   -9.6424    1.0000 </r>
       <r>   -9.4583    1.0000 </r>
       <r>   -8.3583    1.0000 </r>
       <r>   -8.3110    1.0000 </r>
       <r>   -7.3098    1.0000 </r>
       <r>   -7.1426    1.0000 </r>
       <r>   -7.0117    1.0000 </r>
       <r>   -5.2951    0.0000 </r>
       <r>   -4.9946    0.0000 </r>
       <r>   -4.9540    0.0000 </r>
       <r>   -4.8591    0.0000 </r>
       <r>   -4.2204    0.0000 </r>
       <r>   -4.0342    0.0000 </r>
       <r>   -3.9423    0.0000 </r>
       <r>   -3.8836    0.0000 </r>
       <r>   -3.7236    0.0000 </r>
       <r>   -3.0896    0.0000 </r>
       <r>   -2.8179    0.0000 </r>
       <r>   -2.7358    0.0000 </r>
       <r>   -2.6321    0.0000 </r>
       <r>   -2.0413    0.0000 </r>
       <r>   -1.6461    0.0000 </r>
       <r>   -1.5440    0.0000 </r>
       <r>   -1.4538    0.0000 </r>
       <r>   -1.2335    0.0000 </r>
       <r>   -1.1909    0.0000 </r>
       <r>   -1.1242    0.0000 </r>
       <r>   -0.9623    0.0000 </r>
       <r>   -0.8626    0.0000 </r>
       <r>   -0.8434    0.0000 </r>
       <r>   -0.7528    0.0000 </r>
       <r>   -0.6854    0.0000 </r>
       <r>   -0.5595    0.0000 </r>
       <r>   -0.4079    0.0000 </r>
       <r>   -0.3877    0.0000 </r>
       <r>   -0.3557    0.0000 </r>
       <r>   -0.2964    0.0000 </r>
       <r>   -0.1899    0.0000 </r>
       <r>   -0.1406    0.0000 </r>
       <r>   -0.0830    0.0000 </r>
       <r>    0.0125    0.0000 </r>
       <r>    0.1185    0.0000 </r>
       <r>    0.2281    0.0000 </r>
       <r>    0.3498    0.0000 </r>
       <r>    0.3922    0.0000 </r>
       <r>    0.4764    0.0000 </r>
       <r>    0.4831    0.0000 </r>
       <r>    0.5602    0.0000 </r>
       <r>    0.6063    0.0000 </r>
       <r>    0.6559    0.0000 </r>
       <r>    0.6942    0.0000 </r>
       <r>    0.7181    0.0000 </r>
      </set>
     </set>
    </set>
   </array>
  </eigenvalues>
  <separator name="orbital magnetization" >
   <v name="MAGDIPOLOUT">      0.00000000      0.00000000      0.00000000</v>
  </separator>
  <dos>
   <i name="efermi">     -6.90472211 </i>
   <total>
    <array>
     <dimension dim="1">gridpoints</dimension>
     <dimension dim="2">spin</dimension>
     <field>energy</field>
     <field>total</field>
     <field>integrated</field>
     <set>
      <set comment="spin 1">
       <r>   -51.4260     0.0000     0.0000 </r>
       <r>   -51.2439     0.0000     0.0000 </r>
       <r>   -51.0618     0.0000     0.0000 </r>
       <r>   -50.8797     0.0000     0.0000 </r>
       <r>   -50.6977     0.0000     0.0000 </r>
       <r>   -50.5156     0.0000     0.0000 </r>
       <r>   -50.3335     0.0000     0.0000 </r>
       <r>   -50.1514     0.0000     0.0000 </r>
       <r>   -49.9693     0.0000     0.0000 </r>
       <r>   -49.7872     0.0000     0.0000 </r>
       <r>   -49.6051     0.0000     0.0000 </r>
       <r>   -49.4230     0.0000     0.0000 </r>
       <r>   -49.2409     0.0000     0.0000 </r>
       <r>   -49.0588     0.0000     0.0000 </r>
       <r>   -48.8767    10.9835     2.0000 </r>
       <r>   -48.6946     0.0000     4.0000 </r>
       <r>   -48.5126    10.9835     6.0000 </r>
       <r>   -48.3305     0.0000     6.0000 </r>
       <r>   -48.1484     0.0000     6.0000 </r>
       <r>   -47.9663     0.0000     6.0000 </r>
       <r>   -47.7842     0.0000     6.0000 </r>
       <r>   -47.6021     0.0000     6.0000 </r>
       <r>   -47.4200     0.0000     6.0000 </r>
       <r>   -47.2379     0.0000     6.0000 </r>
       <r>   -47.0558     0.0000     6.0000 </r>
       <r>   -46.8737     0.0000     6.0000 </r>
       <r>   -46.6916     0.0000     6.0000 </r>
       <r>   -46.5096     0.0000     6.0000 </r>
       <r>   -46.3275     0.0000     6.0000 </r>
       <r>   -46.1454     0.0000     6.0000 </r>
       <r>   -45.9633     0.0000     6.0000 </r>
       <r>   -45.7812     0.0000     6.0000 </r>
       <r>   -45.5991     0.0000     6.0000 </r>
       <r>   -45.4170     0.0000     6.0000 </r>
       <r>   -45.2349     0.0000     6.0000 </r>
       <r>   -45.0528     0.0000     6.0000 </r>
       <r>   -44.8707     0.0000     6.0000 </r>
       <r>   -44.6886     0.0000     6.0000 </r>
       <r>   -44.5066     0.0000     6.0000 </r>
       <r>   -44.3245     0.0000     6.0000 </r>
       <r>   -44.1424     0.0000     6.0000 </r>
       <r>   -43.9603     0.0000     6.0000 </r>
       <r>   -43.7782     0.0000     6.0000 </r>
       <r>   -43.5961     0.0000     6.0000 </r>
       <r>   -43.4140     0.0000     6.0000 </r>
       <r>   -43.2319     0.0000     6.0000 </r>
       <r>   -43.0498     0.0000     6.0000 </r>
       <r>   -42.8677     0.0000     6.0000 </r>
       <r>   -42.6856     0.0000     6.0000 </r>
       <r>   -42.5035     0.0000     6.0000 </r>
       <r>   -42.3215     0.0000     6.0000 </r>
       <r>   -42.1394     0.0000     6.0000 </r>
       <r>   -41.9573     0.0000     6.0000 </r>
       <r>   -41.7752     0.0000     6.0000 </r>
       <r>   -41.5931     0.0000     6.0000 </r>
       <r>   -41.4110     0.0000     6.0000 </r>
       <r>   -41.2289     0.0000     6.0000 </r>
       <r>   -41.0468     0.0000     6.0000 </r>
       <r>   -40.8647     0.0000     6.0000 </r>
       <r>   -40.6826     0.0000     6.0000 </r>
       <r>   -40.5005     0.0000     6.0000 </r>
       <r>   -40.3185     0.0000     6.0000 </r>
       <r>   -40.1364     0.0000     6.0000 </r>
       <r>   -39.9543     0.0000     6.0000 </r>
       <r>   -39.7722     0.0000     6.0000 </r>
       <r>   -39.5901     0.0000     6.0000 </r>
       <r>   -39.4080     0.0000     6.0000 </r>
       <r>   -39.2259     0.0000     6.0000 </r>
       <r>   -39.0438     0.0000     6.0000 </r>
       <r>   -38.8617     0.0000     6.0000 </r>
       <r>   -38.6796     0.0000     6.0000 </r>
       <r>   -38.4975     0.0000     6.0000 </r>
       <r>   -38.3155     0.0000     6.0000 </r>
       <r>   -38.1334     0.0000     6.0000 </r>
       <r>   -37.9513     0.0000     6.0000 </r>
       <r>   -37.7692     0.0000     6.0000 </r>
       <r>   -37.5871     0.0000     6.0000 </r>
       <r>   -37.4050     0.0000     6.0000 </r>
       <r>   -37.2229     0.0000     6.0000 </r>
       <r>   -37.0408     0.0000     6.0000 </r>
       <r>   -36.8587     0.0000     6.0000 </r>
       <r>   -36.6766     0.0000     6.0000 </r>
       <r>   -36.4945     0.0000     6.0000 </r>
       <r>   -36.3124     0.0000     6.0000 </r>
       <r>   -36.1304     0.0000     6.0000 </r>
       <r>   -35.9483     0.0000     6.0000 </r>
       <r>   -35.7662     0.0000     6.0000 </r>
       <r>   -35.5841     0.0000     6.0000 </r>
       <r>   -35.4020     0.0000     6.0000 </r>
       <r>   -35.2199     0.0000     6.0000 </r>
       <r>   -35.0378     0.0000     6.0000 </r>
       <r>   -34.8557     0.0000     6.0000 </r>
       <r>   -34.6736     0.0000     6.0000 </r>
       <r>   -34.4915     0.0000     6.0000 </r>
       <r>   -34.3094     0.0000     6.0000 </r>
       <r>   -34.1274     0.0000     6.0000 </r>
       <r>   -33.9453     0.0000     6.0000 </r>
       <r>   -33.7632     0.0000     6.0000 </r>
       <r>   -33.5811     0.0000     6.0000 </r>
       <r>   -33.3990     0.0000     6.0000 </r>
       <r>   -33.2169     0.0000     6.0000 </r>
       <r>   -33.0348     0.0000     6.0000 </r>
       <r>   -32.8527     0.0000     6.0000 </r>
       <r>   -32.6706     0.0000     6.0000 </r>
       <r>   -32.4885     0.0000     6.0000 </r>
       <r>   -32.3064     0.0000     6.0000 </r>
       <r>   -32.1244     0.0000     6.0000 </r>
       <r>   -31.9423     0.0000     6.0000 </r>
       <r>   -31.7602     0.0000     6.0000 </r>
       <r>   -31.5781     0.0000     6.0000 </r>
       <r>   -31.3960     0.0000     6.0000 </r>
       <r>   -31.2139     0.0000     6.0000 </r>
       <r>   -31.0318     0.0000     6.0000 </r>
       <r>   -30.8497     0.0000     6.0000 </r>
       <r>   -30.6676     0.0000     6.0000 </r>
       <r>   -30.4855     0.0000     6.0000 </r>
       <r>   -30.3034     0.0000     6.0000 </r>
       <r>   -30.1213     0.0000     6.0000 </r>
       <r>   -29.9393     0.0000     6.0000 </r>
       <r>   -29.7572     0.0000     6.0000 </r>
       <r>   -29.5751     0.0000     6.0000 </r>
       <r>   -29.3930     0.0000     6.0000 </r>
       <r>   -29.2109     0.0000     6.0000 </r>
       <r>   -29.0288     0.0000     8.0000 </r>
       <r>   -28.8467     0.0000     8.0000 </r>
       <r>   -28.6646     0.0000     8.0000 </r>
       <r>   -28.4825     0.0000     8.0000 </r>
       <r>   -28.3004     0.0000     8.0000 </r>
       <r>   -28.1183     0.0000     8.0000 </r>
       <r>   -27.9363     0.0000     8.0000 </r>
       <r>   -27.7542     0.0000     8.0000 </r>
       <r>   -27.5721     0.0000     8.0000 </r>
       <r>   -27.3900     0.0000     8.0000 </r>
       <r>   -27.2079     0.0000    10.0000 </r>
       <r>   -27.0258     0.0000    10.0000 </r>
       <r>   -26.8437     9.8311    11.7902 </r>
       <r>   -26.6616    10.9835    14.0000 </r>
       <r>   -26.4795     0.0000    14.0000 </r>
       <r>   -26.2974     0.0000    14.0000 </r>
       <r>   -26.1153     4.6600    14.8485 </r>
       <r>   -25.9333     0.0000    18.0000 </r>
       <r>   -25.7512     0.0000    18.0000 </r>
       <r>   -25.5691     0.0000    18.0000 </r>
       <r>   -25.3870     0.0000    18.0000 </r>
       <r>   -25.2049     0.0000    18.0000 </r>
       <r>   -25.0228     0.0000    18.0000 </r>
       <r>   -24.8407     0.0000    18.0000 </r>
       <r>   -24.6586     0.0000    18.0000 </r>
       <r>   -24.4765     0.0000    18.0000 </r>
       <r>   -24.2944     0.0000    18.0000 </r>
       <r>   -24.1123     0.0000    18.0000 </r>
       <r>   -23.9302     0.0000    20.0000 </r>
       <r>   -23.7482     0.0000    20.0000 </r>
       <r>   -23.5661     0.0000    20.0000 </r>
       <r>   -23.3840     0.0000    20.0000 </r>
       <r>   -23.2019     0.0000    20.0000 </r>
       <r>   -23.0198     0.0000    20.0000 </r>
       <r>   -22.8377     0.0000    20.0000 </r>
       <r>   -22.6556     0.0000    20.0000 </r>
       <r>   -22.4735    10.9830    21.9999 </r>
       <r>   -22.2914    11.7033    26.1311 </r>
       <r>   -22.1093    21.8415    33.9771 </r>
       <r>   -21.9272     0.0000    34.0000 </r>
       <r>   -21.7452     0.0000    34.0000 </r>
       <r>   -21.5631     0.0000    34.0000 </r>
       <r>   -21.3810     0.0000    34.0000 </r>
       <r>   -21.1989     0.0000    34.0000 </r>
       <r>   -21.0168     0.0000    34.0000 </r>
       <r>   -20.8347     0.0000    34.0000 </r>
       <r>   -20.6526    10.9835    38.0000 </r>
       <r>   -20.4705     0.0000    38.0000 </r>
       <r>   -20.2884     0.0000    38.0000 </r>
       <r>   -20.1063     0.0000    38.0000 </r>
       <r>   -19.9242     0.0000    38.0000 </r>
       <r>   -19.7422     0.0000    38.0000 </r>
       <r>   -19.5601     0.0000    38.0000 </r>
       <r>   -19.3780     0.0000    38.0000 </r>
       <r>   -19.1959     0.0000    40.0000 </r>
       <r>   -19.0138     0.0000    42.0000 </r>
       <r>   -18.8317     0.0000    42.0000 </r>
       <r>   -18.6496    12.7794    44.3270 </r>
       <r>   -18.4675     0.0000    46.0000 </r>
       <r>   -18.2854     0.0000    50.0000 </r>
       <r>   -18.1033     0.0000    50.0000 </r>
       <r>   -17.9212     0.0000    50.0000 </r>
       <r>   -17.7391     0.0000    50.0000 </r>
       <r>   -17.5571    11.0316    52.0088 </r>
       <r>   -17.3750     0.0000    54.0000 </r>
       <r>   -17.1929    21.9670    58.0000 </r>
       <r>   -17.0108     0.0000    58.0000 </r>
       <r>   -16.8287     6.4154    59.1682 </r>
       <r>   -16.6466     0.0000    60.0000 </r>
       <r>   -16.4645     0.0000    62.0000 </r>
       <r>   -16.2824     0.0000    62.0000 </r>
       <r>   -16.1003     0.0000    62.0000 </r>
       <r>   -15.9182     0.0752    62.0137 </r>
       <r>   -15.7361     0.0000    64.0000 </r>
       <r>   -15.5541    10.9835    68.0000 </r>
       <r>   -15.3720     0.0000    68.0000 </r>
       <r>   -15.1899     0.0000    68.0000 </r>
       <r>   -15.0078     0.0000    68.0000 </r>
       <r>   -14.8257     0.0000    70.0000 </r>
       <r>   -14.6436    21.9663    75.9999 </r>
       <r>   -14.4615     0.0000    78.0000 </r>
       <r>   -14.2794     0.0000    78.0000 </r>
       <r>   -14.0973     0.0000    78.0000 </r>
       <r>   -13.9152    18.8358    83.4298 </r>
       <r>   -13.7331    22.6690    88.1278 </r>
       <r>   -13.5511     0.1492    92.0272 </r>
       <r>   -13.3690     0.0244    94.0044 </r>
       <r>   -13.1869     3.9512    96.7195 </r>
       <r>   -13.0048     0.0000   100.0000 </r>
       <r>   -12.8227    10.9684   103.9973 </r>
       <r>   -12.6406    10.9835   108.0000 </r>
       <r>   -12.4585    10.9835   110.0000 </r>
       <r>   -12.2764    10.9835   114.0000 </r>
       <r>   -12.0943     2.5323   116.4611 </r>
       <r>   -11.9122     0.0000   120.0000 </r>
       <r>   -11.7301     0.0000   120.0000 </r>
       <r>   -11.5480     0.0000   120.0000 </r>
       <r>   -11.3660    10.9835   122.0000 </r>
       <r>   -11.1839    10.9585   125.9955 </r>
       <r>   -11.0018    32.3588   133.8922 </r>
       <r>   -10.8197     0.0000   134.0000 </r>
       <r>   -10.6376     3.2893   134.5990 </r>
       <r>   -10.4555     0.0000   136.0000 </r>
       <r>   -10.2734     0.0000   138.0000 </r>
       <r>   -10.0913    10.5701   139.9247 </r>
       <r>    -9.9092     0.0000   142.0000 </r>
       <r>    -9.7271    22.5492   148.1060 </r>
       <r>    -9.5450     0.0000   154.0000 </r>
       <r>    -9.3630     0.0000   156.0000 </r>
       <r>    -9.1809     0.0000   156.0000 </r>
       <r>    -8.9988     0.0000   156.0000 </r>
       <r>    -8.8167     0.0000   156.0000 </r>
       <r>    -8.6346     0.0000   156.0000 </r>
       <r>    -8.4525     0.0000   156.0000 </r>
       <r>    -8.2704    10.9835   160.0000 </r>
       <r>    -8.0883     0.0000   160.0000 </r>
       <r>    -7.9062     0.0000   160.0000 </r>
       <r>    -7.7241     0.0000   160.0000 </r>
       <r>    -7.5420     0.0000   160.0000 </r>
       <r>    -7.3600     0.0000   160.0000 </r>
       <r>    -7.1779     0.0000   162.0000 </r>
       <r>    -6.9958    10.8507   165.9758 </r>
       <r>    -6.8137     0.0000   166.0000 </r>
       <r>    -6.6316     0.0000   166.0000 </r>
       <r>    -6.4495     0.0000   166.0000 </r>
       <r>    -6.2674     0.0000   166.0000 </r>
       <r>    -6.0853     0.0000   166.0000 </r>
       <r>    -5.9032     0.0000   166.0000 </r>
       <r>    -5.7211     0.0000   166.0000 </r>
       <r>    -5.5390     0.0000   166.0000 </r>
       <r>    -5.3569     0.0000   166.0000 </r>
       <r>    -5.1749     0.0000   168.0000 </r>
       <r>    -4.9928     6.6380   169.2087 </r>
       <r>    -4.8107    10.9835   174.0000 </r>
       <r>    -4.6286     0.0000   174.0000 </r>
       <r>    -4.4465     0.0000   174.0000 </r>
       <r>    -4.2644     0.0000   174.0000 </r>
       <r>    -4.0823     0.0000   176.0000 </r>
       <r>    -3.9002    11.0883   180.0191 </r>
       <r>    -3.7181     8.5764   183.5617 </r>
       <r>    -3.5360     0.0000   184.0000 </r>
       <r>    -3.3539     0.0000   184.0000 </r>
       <r>    -3.1719     0.0000   184.0000 </r>
       <r>    -2.9898     0.0000   186.0000 </r>
       <r>    -2.8077    10.1801   187.8537 </r>
       <r>    -2.6256     9.0358   191.6453 </r>
       <r>    -2.4435     0.0000   192.0000 </r>
       <r>    -2.2614     0.0000   192.0000 </r>
       <r>    -2.0793     0.0000   192.0000 </r>
       <r>    -1.8972     0.0000   194.0000 </r>
       <r>    -1.7151     0.0000   194.0000 </r>
       <r>    -1.5330    10.3224   197.8796 </r>
       <r>    -1.3509     0.0000   200.0000 </r>
       <r>    -1.1689    21.9571   203.9982 </r>
       <r>    -0.9868     0.0030   206.0005 </r>
       <r>    -0.8047    21.9670   212.0000 </r>
       <r>    -0.6226    10.9835   216.0000 </r>
       <r>    -0.4405     0.0000   218.0000 </r>
       <r>    -0.2584    10.9835   226.0000 </r>
       <r>    -0.0763    20.0636   231.6534 </r>
       <r>     0.1058     0.4029   234.0734 </r>
       <r>     0.2879    10.9835   238.0000 </r>
       <r>     0.4700    13.3408   242.4292 </r>
       <r>     0.6521    14.2146   250.5884 </r>
       <r>     0.8342     0.0000   256.0000 </r>
       <r>     1.0162     0.0000   256.0000 </r>
       <r>     1.1983     0.0000   256.0000 </r>
       <r>     1.3804     0.0000   256.0000 </r>
       <r>     1.5625     0.0000   256.0000 </r>
       <r>     1.7446     0.0000   256.0000 </r>
       <r>     1.9267     0.0000   256.0000 </r>
       <r>     2.1088     0.0000   256.0000 </r>
       <r>     2.2909     0.0000   256.0000 </r>
       <r>     2.4730     0.0000   256.0000 </r>
       <r>     2.6551     0.0000   256.0000 </r>
       <r>     2.8372     0.0000   256.0000 </r>
       <r>     3.0192     0.0000   256.0000 </r>
       <r>     3.2013     0.0000   256.0000 </r>
      </set>
      <set comment="spin 2">
       <r>   -51.4260     0.0000     0.0000 </r>
       <r>   -51.2439     0.0000     0.0000 </r>
       <r>   -51.0618     0.0000     0.0000 </r>
       <r>   -50.8797     0.0000     0.0000 </r>
       <r>   -50.6977     0.0000     0.0000 </r>
       <r>   -50.5156     0.0000     0.0000 </r>
       <r>   -50.3335     0.0000     0.0000 </r>
       <r>   -50.1514     0.0000     0.0000 </r>
       <r>   -49.9693     0.0000     0.0000 </r>
       <r>   -49.7872     0.0000     0.0000 </r>
       <r>   -49.6051     0.0000     0.0000 </r>
       <r>   -49.4230     0.0000     0.0000 </r>
       <r>   -49.2409     0.0000     0.0000 </r>
       <r>   -49.0588     0.0000     0.0000 </r>
       <r>   -48.8767    10.9835     2.0000 </r>
       <r>   -48.6946     0.0000     4.0000 </r>
       <r>   -48.5126    10.9835     6.0000 </r>
       <r>   -48.3305     0.0000     6.0000 </r>
       <r>   -48.1484     0.0000     6.0000 </r>
       <r>   -47.9663     0.0000     6.0000 </r>
       <r>   -47.7842     0.0000     6.0000 </r>
       <r>   -47.6021     0.0000     6.0000 </r>
       <r>   -47.4200     0.0000     6.0000 </r>
       <r>   -47.2379     0.0000     6.0000 </r>
       <r>   -47.0558     0.0000     6.0000 </r>
       <r>   -46.8737     0.0000     6.0000 </r>
       <r>   -46.6916     0.0000     6.0000 </r>
       <r>   -46.5096     0.0000     6.0000 </r>
       <r>   -46.3275     0.0000     6.0000 </r>
       <r>   -46.1454     0.0000     6.0000 </r>
       <r>   -45.9633     0.0000     6.0000 </r>
       <r>   -45.7812     0.0000     6.0000 </r>
       <r>   -45.5991     0.0000     6.0000 </r>
       <r>   -45.4170     0.0000     6.0000 </r>
       <r>   -45.2349     0.0000     6.0000 </r>
       <r>   -45.0528     0.0000     6.0000 </r>
       <r>   -44.8707     0.0000     6.0000 </r>
       <r>   -44.6886     0.0000     6.0000 </r>
       <r>   -44.5066     0.0000     6.0000 </r>
       <r>   -44.3245     0.0000     6.0000 </r>
       <r>   -44.1424     0.0000     6.0000 </r>
       <r>   -43.9603     0.0000     6.0000 </r>
       <r>   -43.7782     0.0000     6.0000 </r>
       <r>   -43.5961     0.0000     6.0000 </r>
       <r>   -43.4140     0.0000     6.0000 </r>
       <r>   -43.2319     0.0000     6.0000 </r>
       <r>   -43.0498     0.0000     6.0000 </r>
       <r>   -42.8677     0.0000     6.0000 </r>
       <r>   -42.6856     0.0000     6.0000 </r>
       <r>   -42.5035     0.0000     6.0000 </r>
       <r>   -42.3215     0.0000     6.0000 </r>
       <r>   -42.1394     0.0000     6.0000 </r>
       <r>   -41.9573     0.0000     6.0000 </r>
       <r>   -41.7752     0.0000     6.0000 </r>
       <r>   -41.5931     0.0000     6.0000 </r>
       <r>   -41.4110     0.0000     6.0000 </r>
       <r>   -41.2289     0.0000     6.0000 </r>
       <r>   -41.0468     0.0000     6.0000 </r>
       <r>   -40.8647     0.0000     6.0000 </r>
       <r>   -40.6826     0.0000     6.0000 </r>
       <r>   -40.5005     0.0000     6.0000 </r>
       <r>   -40.3185     0.0000     6.0000 </r>
       <r>   -40.1364     0.0000     6.0000 </r>
       <r>   -39.9543     0.0000     6.0000 </r>
       <r>   -39.7722     0.0000     6.0000 </r>
       <r>   -39.5901     0.0000     6.0000 </r>
       <r>   -39.4080     0.0000     6.0000 </r>
       <r>   -39.2259     0.0000     6.0000 </r>
       <r>   -39.0438     0.0000     6.0000 </r>
       <r>   -38.8617     0.0000     6.0000 </r>
       <r>   -38.6796     0.0000     6.0000 </r>
       <r>   -38.4975     0.0000     6.0000 </r>
       <r>   -38.3155     0.0000     6.0000 </r>
       <r>   -38.1334     0.0000     6.0000 </r>
       <r>   -37.9513     0.0000     6.0000 </r>
       <r>   -37.7692     0.0000     6.0000 </r>
       <r>   -37.5871     0.0000     6.0000 </r>
       <r>   -37.4050     0.0000     6.0000 </r>
       <r>   -37.2229     0.0000     6.0000 </r>
       <r>   -37.0408     0.0000     6.0000 </r>
       <r>   -36.8587     0.0000     6.0000 </r>
       <r>   -36.6766     0.0000     6.0000 </r>
       <r>   -36.4945     0.0000     6.0000 </r>
       <r>   -36.3124     0.0000     6.0000 </r>
       <r>   -36.1304     0.0000     6.0000 </r>
       <r>   -35.9483     0.0000     6.0000 </r>
       <r>   -35.7662     0.0000     6.0000 </r>
       <r>   -35.5841     0.0000     6.0000 </r>
       <r>   -35.4020     0.0000     6.0000 </r>
       <r>   -35.2199     0.0000     6.0000 </r>
       <r>   -35.0378     0.0000     6.0000 </r>
       <r>   -34.8557     0.0000     6.0000 </r>
       <r>   -34.6736     0.0000     6.0000 </r>
       <r>   -34.4915     0.0000     6.0000 </r>
       <r>   -34.3094     0.0000     6.0000 </r>
       <r>   -34.1274     0.0000     6.0000 </r>
       <r>   -33.9453     0.0000     6.0000 </r>
       <r>   -33.7632     0.0000     6.0000 </r>
       <r>   -33.5811     0.0000     6.0000 </r>
       <r>   -33.3990     0.0000     6.0000 </r>
       <r>   -33.2169     0.0000     6.0000 </r>
       <r>   -33.0348     0.0000     6.0000 </r>
       <r>   -32.8527     0.0000     6.0000 </r>
       <r>   -32.6706     0.0000     6.0000 </r>
       <r>   -32.4885     0.0000     6.0000 </r>
       <r>   -32.3064     0.0000     6.0000 </r>
       <r>   -32.1244     0.0000     6.0000 </r>
       <r>   -31.9423     0.0000     6.0000 </r>
       <r>   -31.7602     0.0000     6.0000 </r>
       <r>   -31.5781     0.0000     6.0000 </r>
       <r>   -31.3960     0.0000     6.0000 </r>
       <r>   -31.2139     0.0000     6.0000 </r>
       <r>   -31.0318     0.0000     6.0000 </r>
       <r>   -30.8497     0.0000     6.0000 </r>
       <r>   -30.6676     0.0000     6.0000 </r>
       <r>   -30.4855     0.0000     6.0000 </r>
       <r>   -30.3034     0.0000     6.0000 </r>
       <r>   -30.1213     0.0000     6.0000 </r>
       <r>   -29.9393     0.0000     6.0000 </r>
       <r>   -29.7572     0.0000     6.0000 </r>
       <r>   -29.5751     0.0000     6.0000 </r>
       <r>   -29.3930     0.0000     6.0000 </r>
       <r>   -29.2109     0.0000     6.0000 </r>
       <r>   -29.0288     0.0000     8.0000 </r>
       <r>   -28.8467     0.0000     8.0000 </r>
       <r>   -28.6646     0.0000     8.0000 </r>
       <r>   -28.4825     0.0000     8.0000 </r>
       <r>   -28.3004     0.0000     8.0000 </r>
       <r>   -28.1183     0.0000     8.0000 </r>
       <r>   -27.9363     0.0000     8.0000 </r>
       <r>   -27.7542     0.0000     8.0000 </r>
       <r>   -27.5721     0.0000     8.0000 </r>
       <r>   -27.3900     0.0000     8.0000 </r>
       <r>   -27.2079     0.0000    10.0000 </r>
       <r>   -27.0258     0.0000    10.0000 </r>
       <r>   -26.8437     9.8311    11.7902 </r>
       <r>   -26.6616    10.9835    14.0000 </r>
       <r>   -26.4795     0.0000    14.0000 </r>
       <r>   -26.2974     0.0000    14.0000 </r>
       <r>   -26.1153     4.6599    14.8485 </r>
       <r>   -25.9333     0.0000    18.0000 </r>
       <r>   -25.7512     0.0000    18.0000 </r>
       <r>   -25.5691     0.0000    18.0000 </r>
       <r>   -25.3870     0.0000    18.0000 </r>
       <r>   -25.2049     0.0000    18.0000 </r>
       <r>   -25.0228     0.0000    18.0000 </r>
       <r>   -24.8407     0.0000    18.0000 </r>
       <r>   -24.6586     0.0000    18.0000 </r>
       <r>   -24.4765     0.0000    18.0000 </r>
       <r>   -24.2944     0.0000    18.0000 </r>
       <r>   -24.1123     0.0000    18.0000 </r>
       <r>   -23.9302     0.0000    20.0000 </r>
       <r>   -23.7482     0.0000    20.0000 </r>
       <r>   -23.5661     0.0000    20.0000 </r>
       <r>   -23.3840     0.0000    20.0000 </r>
       <r>   -23.2019     0.0000    20.0000 </r>
       <r>   -23.0198     0.0000    20.0000 </r>
       <r>   -22.8377     0.0000    20.0000 </r>
       <r>   -22.6556     0.0000    20.0000 </r>
       <r>   -22.4735    10.9830    21.9999 </r>
       <r>   -22.2914    11.7033    26.1311 </r>
       <r>   -22.1093    21.8415    33.9771 </r>
       <r>   -21.9272     0.0000    34.0000 </r>
       <r>   -21.7452     0.0000    34.0000 </r>
       <r>   -21.5631     0.0000    34.0000 </r>
       <r>   -21.3810     0.0000    34.0000 </r>
       <r>   -21.1989     0.0000    34.0000 </r>
       <r>   -21.0168     0.0000    34.0000 </r>
       <r>   -20.8347     0.0000    34.0000 </r>
       <r>   -20.6526    10.9835    38.0000 </r>
       <r>   -20.4705     0.0000    38.0000 </r>
       <r>   -20.2884     0.0000    38.0000 </r>
       <r>   -20.1063     0.0000    38.0000 </r>
       <r>   -19.9242     0.0000    38.0000 </r>
       <r>   -19.7422     0.0000    38.0000 </r>
       <r>   -19.5601     0.0000    38.0000 </r>
       <r>   -19.3780     0.0000    38.0000 </r>
       <r>   -19.1959     0.0000    40.0000 </r>
       <r>   -19.0138     0.0000    42.0000 </r>
       <r>   -18.8317     0.0000    42.0000 </r>
       <r>   -18.6496    12.7794    44.3270 </r>
       <r>   -18.4675     0.0000    46.0000 </r>
       <r>   -18.2854     0.0000    50.0000 </r>
       <r>   -18.1033     0.0000    50.0000 </r>
       <r>   -17.9212     0.0000    50.0000 </r>
       <r>   -17.7391     0.0000    50.0000 </r>
       <r>   -17.5571    11.0316    52.0088 </r>
       <r>   -17.3750     0.0000    54.0000 </r>
       <r>   -17.1929    21.9670    58.0000 </r>
       <r>   -17.0108     0.0000    58.0000 </r>
       <r>   -16.8287     6.4153    59.1682 </r>
       <r>   -16.6466     0.0000    60.0000 </r>
       <r>   -16.4645     0.0000    62.0000 </r>
       <r>   -16.2824     0.0000    62.0000 </r>
       <r>   -16.1003     0.0000    62.0000 </r>
       <r>   -15.9182     0.0752    62.0137 </r>
       <r>   -15.7361     0.0000    64.0000 </r>
       <r>   -15.5541    10.9835    68.0000 </r>
       <r>   -15.3720     0.0000    68.0000 </r>
       <r>   -15.1899     0.0000    68.0000 </r>
       <r>   -15.0078     0.0000    68.0000 </r>
       <r>   -14.8257     0.0000    70.0000 </r>
       <r>   -14.6436    21.9663    75.9999 </r>
       <r>   -14.4615     0.0000    78.0000 </r>
       <r>   -14.2794     0.0000    78.0000 </r>
       <r>   -14.0973     0.0000    78.0000 </r>
       <r>   -13.9152    18.8358    83.4298 </r>
       <r>   -13.7331    22.6690    88.1278 </r>
       <r>   -13.5511     0.1492    92.0272 </r>
       <r>   -13.3690     0.0244    94.0044 </r>
       <r>   -13.1869     3.9512    96.7195 </r>
       <r>   -13.0048     0.0000   100.0000 </r>
       <r>   -12.8227    10.9684   103.9973 </r>
       <r>   -12.6406    10.9835   108.0000 </r>
       <r>   -12.4585    10.9835   110.0000 </r>
       <r>   -12.2764    10.9835   114.0000 </r>
       <r>   -12.0943     2.5324   116.4611 </r>
       <r>   -11.9122     0.0000   120.0000 </r>
       <r>   -11.7301     0.0000   120.0000 </r>
       <r>   -11.5480     0.0000   120.0000 </r>
       <r>   -11.3660    10.9835   122.0000 </r>
       <r>   -11.1839    10.9585   125.9955 </r>
       <r>   -11.0018    32.3588   133.8923 </r>
       <r>   -10.8197     0.0000   134.0000 </r>
       <r>   -10.6376     3.2894   134.5990 </r>
       <r>   -10.4555     0.0000   136.0000 </r>
       <r>   -10.2734     0.0000   138.0000 </r>
       <r>   -10.0913    10.5701   139.9247 </r>
       <r>    -9.9092     0.0000   142.0000 </r>
       <r>    -9.7271    22.5492   148.1060 </r>
       <r>    -9.5450     0.0000   154.0000 </r>
       <r>    -9.3630     0.0000   156.0000 </r>
       <r>    -9.1809     0.0000   156.0000 </r>
       <r>    -8.9988     0.0000   156.0000 </r>
       <r>    -8.8167     0.0000   156.0000 </r>
       <r>    -8.6346     0.0000   156.0000 </r>
       <r>    -8.4525     0.0000   156.0000 </r>
       <r>    -8.2704    10.9835   160.0000 </r>
       <r>    -8.0883     0.0000   160.0000 </r>
       <r>    -7.9062     0.0000   160.0000 </r>
       <r>    -7.7241     0.0000   160.0000 </r>
       <r>    -7.5420     0.0000   160.0000 </r>
       <r>    -7.3600     0.0000   160.0000 </r>
       <r>    -7.1779     0.0000   162.0000 </r>
       <r>    -6.9958    10.8507   165.9758 </r>
       <r>    -6.8137     0.0000   166.0000 </r>
       <r>    -6.6316     0.0000   166.0000 </r>
       <r>    -6.4495     0.0000   166.0000 </r>
       <r>    -6.2674     0.0000   166.0000 </r>
       <r>    -6.0853     0.0000   166.0000 </r>
       <r>    -5.9032     0.0000   166.0000 </r>
       <r>    -5.7211     0.0000   166.0000 </r>
       <r>    -5.5390     0.0000   166.0000 </r>
       <r>    -5.3569     0.0000   166.0000 </r>
       <r>    -5.1749     0.0000   168.0000 </r>
       <r>    -4.9928     6.6380   169.2087 </r>
       <r>    -4.8107    10.9835   174.0000 </r>
       <r>    -4.6286     0.0000   174.0000 </r>
       <r>    -4.4465     0.0000   174.0000 </r>
       <r>    -4.2644     0.0000   174.0000 </r>
       <r>    -4.0823     0.0000   176.0000 </r>
       <r>    -3.9002    11.0883   180.0191 </r>
       <r>    -3.7181     8.5764   183.5617 </r>
       <r>    -3.5360     0.0000   184.0000 </r>
       <r>    -3.3539     0.0000   184.0000 </r>
       <r>    -3.1719     0.0000   184.0000 </r>
       <r>    -2.9898     0.0000   186.0000 </r>
       <r>    -2.8077    10.1797   187.8536 </r>
       <r>    -2.6256     9.0358   191.6453 </r>
       <r>    -2.4435     0.0000   192.0000 </r>
       <r>    -2.2614     0.0000   192.0000 </r>
       <r>    -2.0793     0.0000   192.0000 </r>
       <r>    -1.8972     0.0000   194.0000 </r>
       <r>    -1.7151     0.0000   194.0000 </r>
       <r>    -1.5330    10.3217   197.8795 </r>
       <r>    -1.3509     0.0000   200.0000 </r>
       <r>    -1.1689    21.9570   203.9982 </r>
       <r>    -0.9868     0.0030   206.0005 </r>
       <r>    -0.8047    21.9670   212.0000 </r>
       <r>    -0.6226    10.9835   216.0000 </r>
       <r>    -0.4405     0.0000   218.0000 </r>
       <r>    -0.2584    10.9835   226.0000 </r>
       <r>    -0.0763    20.0614   231.6530 </r>
       <r>     0.1058     0.4025   234.0733 </r>
       <r>     0.2879    10.9835   238.0000 </r>
       <r>     0.4700    13.3402   242.4291 </r>
       <r>     0.6521    14.2088   250.5873 </r>
       <r>     0.8342     0.0000   256.0000 </r>
       <r>     1.0162     0.0000   256.0000 </r>
       <r>     1.1983     0.0000   256.0000 </r>
       <r>     1.3804     0.0000   256.0000 </r>
       <r>     1.5625     0.0000   256.0000 </r>
       <r>     1.7446     0.0000   256.0000 </r>
       <r>     1.9267     0.0000   256.0000 </r>
       <r>     2.1088     0.0000   256.0000 </r>
       <r>     2.2909     0.0000   256.0000 </r>
       <r>     2.4730     0.0000   256.0000 </r>
       <r>     2.6551     0.0000   256.0000 </r>
       <r>     2.8372     0.0000   256.0000 </r>
       <r>     3.0192     0.0000   256.0000 </r>
       <r>     3.2013     0.0000   256.0000 </r>
      </set>
     </set>
    </array>
   </total>
  </dos>
 </calculation>
 <structure name="finalpos" >
  <crystal>
   <varray name="basis" >
    <v>      20.00000000       0.00000000       0.00000000 </v>
    <v>       0.00000000      20.00000000       0.00000000 </v>
    <v>       0.00000000       0.00000000      20.00000000 </v>
   </varray>
   <i name="volume">   8000.00000000 </i>
   <varray name="rec_basis" >
    <v>       0.05000000       0.00000000       0.00000000 </v>
    <v>       0.00000000       0.05000000       0.00000000 </v>
    <v>       0.00000000       0.00000000       0.05000000 </v>
   </varray>
  </crystal>
  <varray name="positions" >
   <v>       0.45595175       0.65963312       0.39935201 </v>
   <v>       0.43793752       0.56561110       0.32757008 </v>
   <v>       0.45581208       0.52423376       0.38051465 </v>
   <v>       0.47372925       0.61530131       0.44986522 </v>
   <v>       0.29334713       0.47671938       0.56830116 </v>
   <v>       0.43785737       0.63472201       0.33675972 </v>
   <v>       0.52307882       0.32955005       0.67474498 </v>
   <v>       0.49710163       0.37190466       0.62618823 </v>
   <v>       0.60227374       0.41933300       0.60593616 </v>
   <v>       0.63096398       0.37761922       0.65422416 </v>
   <v>       0.73964927       0.52855915       0.53463181 </v>
   <v>       0.70082162       0.56612858       0.49044049 </v>
   <v>       0.63257913       0.55363620       0.48652424 </v>
   <v>       0.63952130       0.46927713       0.56732841 </v>
   <v>       0.70843899       0.47974495       0.57314689 </v>
   <v>       0.59134754       0.33224398       0.68903016 </v>
   <v>       0.36211554       0.48866484       0.56417415 </v>
   <v>       0.40790931       0.62211625       0.69058213 </v>
   <v>       0.47619960       0.62606623       0.67660612 </v>
   <v>       0.50295190       0.58590820       0.62668073 </v>
   <v>       0.39825425       0.53800137       0.60426081 </v>
   <v>       0.36904589       0.57756069       0.65398228 </v>
   <v>       0.37289802       0.40579857       0.48223443 </v>
   <v>       0.30486503       0.39173492       0.48443166 </v>
   <v>       0.26422003       0.42785518       0.52821594 </v>
   <v>       0.48989745       0.29510618       0.70074864 </v>
   <v>       0.61334240       0.29968355       0.72673159 </v>
   <v>       0.68424189       0.38076917       0.66478776 </v>
   <v>       0.54225374       0.36233861       0.46129841 </v>
   <v>       0.31579090       0.57306911       0.66420366 </v>
   <v>       0.44416348       0.37118871       0.61364770 </v>
   <v>       0.42392665       0.66833230       0.29622671 </v>
   <v>       0.45642762       0.71313270       0.40950260 </v>
   <v>       0.48809132       0.63358802       0.49907234 </v>
   <v>       0.56912778       0.41808713       0.41480476 </v>
   <v>       0.73767440       0.44963919       0.60776512 </v>
   <v>       0.72277620       0.60481012       0.45904817 </v>
   <v>       0.45570253       0.47012894       0.37468790 </v>
   <v>       0.40614333       0.37888556       0.44852541 </v>
   <v>       0.28443799       0.35306162       0.45202062 </v>
   <v>       0.79326502       0.53703787       0.53892527 </v>
   <v>       0.55589708       0.58769132       0.61440612 </v>
   <v>       0.42412006       0.54328620       0.27986105 </v>
   <v>       0.50894741       0.65984570       0.70400156 </v>
   <v>       0.26265982       0.50568523       0.60265428 </v>
   <v>       0.21072272       0.41813760       0.53105039 </v>
   <v>       0.60090654       0.58197914       0.45254259 </v>
   <v>       0.38544357       0.65296704       0.72941133 </v>
   <v>       0.47424490       0.54794204       0.44140236 </v>
   <v>       0.40180479       0.45306079       0.52108436 </v>
   <v>       0.53520702       0.41608490       0.59173240 </v>
   <v>       0.46544808       0.54254992       0.59041194 </v>
   <v>       0.60138410       0.50650621       0.52397638 </v>
   <v>       0.53073984       0.40562607       0.44215451 </v>
   <v>       0.50088568       0.48087016       0.51934246 </v>
  </varray>
  <varray name="selective"  type="logical" >
   <v type="logical" >  T  T  T </v>
   <v type="logical" >  T  T  T </v>
   <v type="logical" >  T  T  T </v>
   <v type="logical" >  T  T  T </v>
   <v type="logical" >  T  T  T </v>
   <v type="logical" >  T  T  T </v>
   <v type="logical" >  T  T  T </v>
   <v type="logical" >  T  T  T </v>
   <v type="logical" >  T  T  T </v>
   <v type="logical" >  T  T  T </v>
   <v type="logical" >  T  T  T </v>
   <v type="logical" >  T  T  T </v>
   <v type="logical" >  T  T  T </v>
   <v type="logical" >  T  T  T </v>
   <v type="logical" >  T  T  T </v>
   <v type="logical" >  T  T  T </v>
   <v type="logical" >  T  T  T </v>
   <v type="logical" >  T  T  T </v>
   <v type="logical" >  T  T  T </v>
   <v type="logical" >  T  T  T </v>
   <v type="logical" >  T  T  T </v>
   <v type="logical" >  T  T  T </v>
   <v type="logical" >  T  T  T </v>
   <v type="logical" >  T  T  T </v>
   <v type="logical" >  T  T  T </v>
   <v type="logical" >  T  T  T </v>
   <v type="logical" >  T  T  T </v>
   <v type="logical" >  T  T  T </v>
   <v type="logical" >  T  T  T </v>
   <v type="logical" >  T  T  T </v>
   <v type="logical" >  T  T  T </v>
   <v type="logical" >  T  T  T </v>
   <v type="logical" >  T  T  T </v>
   <v type="logical" >  T  T  T </v>
   <v type="logical" >  T  T  T </v>
   <v type="logical" >  T  T  T </v>
   <v type="logical" >  T  T  T </v>
   <v type="logical" >  T  T  T </v>
   <v type="logical" >  T  T  T </v>
   <v type="logical" >  T  T  T </v>
   <v type="logical" >  T  T  T </v>
   <v type="logical" >  T  T  T </v>
   <v type="logical" >  T  T  T </v>
   <v type="logical" >  T  T  T </v>
   <v type="logical" >  T  T  T </v>
   <v type="logical" >  T  T  T </v>
   <v type="logical" >  T  T  T </v>
   <v type="logical" >  T  T  T </v>
   <v type="logical" >  T  T  T </v>
   <v type="logical" >  T  T  T </v>
   <v type="logical" >  T  T  T </v>
   <v type="logical" >  T  T  T </v>
   <v type="logical" >  T  T  T </v>
   <v type="logical" >  T  T  T </v>
   <v type="logical" >  T  T  T </v>
  </varray>
  <nose>
   <v>      -3.00000000       0.00000000       0.00010000       0.00010000 </v>
  </nose>
 </structure>
</modeling>
