  55  55   0   0
  0.1454545E+03  0.2000000E-08  0.2000000E-08  0.2000000E-08  0.5000000E-15
  1.000000000000000E-004
  CAR 
 c2_oh2_ruthenium_mol                    
      3.21091465    -51.54435341  301     -6.96443934      1.00000000
    -51.544  0.0000E+00  0.0000E+00  0.0000E+00  0.0000E+00
    -51.362  0.0000E+00  0.0000E+00  0.0000E+00  0.0000E+00
    -51.179  0.0000E+00  0.0000E+00  0.0000E+00  0.0000E+00
    -50.997  0.0000E+00  0.0000E+00  0.0000E+00  0.0000E+00
    -50.814  0.0000E+00  0.0000E+00  0.0000E+00  0.0000E+00
    -50.632  0.0000E+00  0.0000E+00  0.0000E+00  0.0000E+00
    -50.449  0.0000E+00  0.0000E+00  0.0000E+00  0.0000E+00
    -50.267  0.0000E+00  0.0000E+00  0.0000E+00  0.0000E+00
    -50.084  0.0000E+00  0.0000E+00  0.0000E+00  0.0000E+00
    -49.902  0.0000E+00  0.0000E+00  0.0000E+00  0.0000E+00
    -49.719  0.0000E+00  0.0000E+00  0.0000E+00  0.0000E+00
    -49.537  0.0000E+00  0.0000E+00  0.0000E+00  0.0000E+00
    -49.354  0.0000E+00  0.0000E+00  0.0000E+00  0.0000E+00
    -49.172  0.0000E+00  0.0000E+00  0.0000E+00  0.0000E+00
    -48.989  0.1096E+02  0.1096E+02  0.2000E+01  0.2000E+01
    -48.807  0.0000E+00  0.0000E+00  0.4000E+01  0.4000E+01
    -48.624  0.1096E+02  0.1096E+02  0.6000E+01  0.6000E+01
    -48.442  0.0000E+00  0.0000E+00  0.6000E+01  0.6000E+01
    -48.259  0.0000E+00  0.0000E+00  0.6000E+01  0.6000E+01
    -48.077  0.0000E+00  0.0000E+00  0.6000E+01  0.6000E+01
    -47.894  0.0000E+00  0.0000E+00  0.6000E+01  0.6000E+01
    -47.711  0.0000E+00  0.0000E+00  0.6000E+01  0.6000E+01
    -47.529  0.0000E+00  0.0000E+00  0.6000E+01  0.6000E+01
    -47.346  0.0000E+00  0.0000E+00  0.6000E+01  0.6000E+01
    -47.164  0.0000E+00  0.0000E+00  0.6000E+01  0.6000E+01
    -46.981  0.0000E+00  0.0000E+00  0.6000E+01  0.6000E+01
    -46.799  0.0000E+00  0.0000E+00  0.6000E+01  0.6000E+01
    -46.616  0.0000E+00  0.0000E+00  0.6000E+01  0.6000E+01
    -46.434  0.0000E+00  0.0000E+00  0.6000E+01  0.6000E+01
    -46.251  0.0000E+00  0.0000E+00  0.6000E+01  0.6000E+01
    -46.069  0.0000E+00  0.0000E+00  0.6000E+01  0.6000E+01
    -45.886  0.0000E+00  0.0000E+00  0.6000E+01  0.6000E+01
    -45.704  0.0000E+00  0.0000E+00  0.6000E+01  0.6000E+01
    -45.521  0.0000E+00  0.0000E+00  0.6000E+01  0.6000E+01
    -45.339  0.0000E+00  0.0000E+00  0.6000E+01  0.6000E+01
    -45.156  0.0000E+00  0.0000E+00  0.6000E+01  0.6000E+01
    -44.974  0.0000E+00  0.0000E+00  0.6000E+01  0.6000E+01
    -44.791  0.0000E+00  0.0000E+00  0.6000E+01  0.6000E+01
    -44.609  0.0000E+00  0.0000E+00  0.6000E+01  0.6000E+01
    -44.426  0.0000E+00  0.0000E+00  0.6000E+01  0.6000E+01
    -44.244  0.0000E+00  0.0000E+00  0.6000E+01  0.6000E+01
    -44.061  0.0000E+00  0.0000E+00  0.6000E+01  0.6000E+01
    -43.879  0.0000E+00  0.0000E+00  0.6000E+01  0.6000E+01
    -43.696  0.0000E+00  0.0000E+00  0.6000E+01  0.6000E+01
    -43.514  0.0000E+00  0.0000E+00  0.6000E+01  0.6000E+01
    -43.331  0.0000E+00  0.0000E+00  0.6000E+01  0.6000E+01
    -43.149  0.0000E+00  0.0000E+00  0.6000E+01  0.6000E+01
    -42.966  0.0000E+00  0.0000E+00  0.6000E+01  0.6000E+01
    -42.784  0.0000E+00  0.0000E+00  0.6000E+01  0.6000E+01
    -42.601  0.0000E+00  0.0000E+00  0.6000E+01  0.6000E+01
    -42.418  0.0000E+00  0.0000E+00  0.6000E+01  0.6000E+01
    -42.236  0.0000E+00  0.0000E+00  0.6000E+01  0.6000E+01
    -42.053  0.0000E+00  0.0000E+00  0.6000E+01  0.6000E+01
    -41.871  0.0000E+00  0.0000E+00  0.6000E+01  0.6000E+01
    -41.688  0.0000E+00  0.0000E+00  0.6000E+01  0.6000E+01
    -41.506  0.0000E+00  0.0000E+00  0.6000E+01  0.6000E+01
    -41.323  0.0000E+00  0.0000E+00  0.6000E+01  0.6000E+01
    -41.141  0.0000E+00  0.0000E+00  0.6000E+01  0.6000E+01
    -40.958  0.0000E+00  0.0000E+00  0.6000E+01  0.6000E+01
    -40.776  0.0000E+00  0.0000E+00  0.6000E+01  0.6000E+01
    -40.593  0.0000E+00  0.0000E+00  0.6000E+01  0.6000E+01
    -40.411  0.0000E+00  0.0000E+00  0.6000E+01  0.6000E+01
    -40.228  0.0000E+00  0.0000E+00  0.6000E+01  0.6000E+01
    -40.046  0.0000E+00  0.0000E+00  0.6000E+01  0.6000E+01
    -39.863  0.0000E+00  0.0000E+00  0.6000E+01  0.6000E+01
    -39.681  0.0000E+00  0.0000E+00  0.6000E+01  0.6000E+01
    -39.498  0.0000E+00  0.0000E+00  0.6000E+01  0.6000E+01
    -39.316  0.0000E+00  0.0000E+00  0.6000E+01  0.6000E+01
    -39.133  0.0000E+00  0.0000E+00  0.6000E+01  0.6000E+01
    -38.951  0.0000E+00  0.0000E+00  0.6000E+01  0.6000E+01
    -38.768  0.0000E+00  0.0000E+00  0.6000E+01  0.6000E+01
    -38.586  0.0000E+00  0.0000E+00  0.6000E+01  0.6000E+01
    -38.403  0.0000E+00  0.0000E+00  0.6000E+01  0.6000E+01
    -38.221  0.0000E+00  0.0000E+00  0.6000E+01  0.6000E+01
    -38.038  0.0000E+00  0.0000E+00  0.6000E+01  0.6000E+01
    -37.856  0.0000E+00  0.0000E+00  0.6000E+01  0.6000E+01
    -37.673  0.0000E+00  0.0000E+00  0.6000E+01  0.6000E+01
    -37.491  0.0000E+00  0.0000E+00  0.6000E+01  0.6000E+01
    -37.308  0.0000E+00  0.0000E+00  0.6000E+01  0.6000E+01
    -37.125  0.0000E+00  0.0000E+00  0.6000E+01  0.6000E+01
    -36.943  0.0000E+00  0.0000E+00  0.6000E+01  0.6000E+01
    -36.760  0.0000E+00  0.0000E+00  0.6000E+01  0.6000E+01
    -36.578  0.0000E+00  0.0000E+00  0.6000E+01  0.6000E+01
    -36.395  0.0000E+00  0.0000E+00  0.6000E+01  0.6000E+01
    -36.213  0.0000E+00  0.0000E+00  0.6000E+01  0.6000E+01
    -36.030  0.0000E+00  0.0000E+00  0.6000E+01  0.6000E+01
    -35.848  0.0000E+00  0.0000E+00  0.6000E+01  0.6000E+01
    -35.665  0.0000E+00  0.0000E+00  0.6000E+01  0.6000E+01
    -35.483  0.0000E+00  0.0000E+00  0.6000E+01  0.6000E+01
    -35.300  0.0000E+00  0.0000E+00  0.6000E+01  0.6000E+01
    -35.118  0.0000E+00  0.0000E+00  0.6000E+01  0.6000E+01
    -34.935  0.0000E+00  0.0000E+00  0.6000E+01  0.6000E+01
    -34.753  0.0000E+00  0.0000E+00  0.6000E+01  0.6000E+01
    -34.570  0.0000E+00  0.0000E+00  0.6000E+01  0.6000E+01
    -34.388  0.0000E+00  0.0000E+00  0.6000E+01  0.6000E+01
    -34.205  0.0000E+00  0.0000E+00  0.6000E+01  0.6000E+01
    -34.023  0.0000E+00  0.0000E+00  0.6000E+01  0.6000E+01
    -33.840  0.0000E+00  0.0000E+00  0.6000E+01  0.6000E+01
    -33.658  0.0000E+00  0.0000E+00  0.6000E+01  0.6000E+01
    -33.475  0.0000E+00  0.0000E+00  0.6000E+01  0.6000E+01
    -33.293  0.0000E+00  0.0000E+00  0.6000E+01  0.6000E+01
    -33.110  0.0000E+00  0.0000E+00  0.6000E+01  0.6000E+01
    -32.928  0.0000E+00  0.0000E+00  0.6000E+01  0.6000E+01
    -32.745  0.0000E+00  0.0000E+00  0.6000E+01  0.6000E+01
    -32.563  0.0000E+00  0.0000E+00  0.6000E+01  0.6000E+01
    -32.380  0.0000E+00  0.0000E+00  0.6000E+01  0.6000E+01
    -32.197  0.0000E+00  0.0000E+00  0.6000E+01  0.6000E+01
    -32.015  0.0000E+00  0.0000E+00  0.6000E+01  0.6000E+01
    -31.832  0.0000E+00  0.0000E+00  0.6000E+01  0.6000E+01
    -31.650  0.0000E+00  0.0000E+00  0.6000E+01  0.6000E+01
    -31.467  0.0000E+00  0.0000E+00  0.6000E+01  0.6000E+01
    -31.285  0.0000E+00  0.0000E+00  0.6000E+01  0.6000E+01
    -31.102  0.0000E+00  0.0000E+00  0.6000E+01  0.6000E+01
    -30.920  0.0000E+00  0.0000E+00  0.6000E+01  0.6000E+01
    -30.737  0.0000E+00  0.0000E+00  0.6000E+01  0.6000E+01
    -30.555  0.0000E+00  0.0000E+00  0.6000E+01  0.6000E+01
    -30.372  0.0000E+00  0.0000E+00  0.6000E+01  0.6000E+01
    -30.190  0.0000E+00  0.0000E+00  0.6000E+01  0.6000E+01
    -30.007  0.0000E+00  0.0000E+00  0.6000E+01  0.6000E+01
    -29.825  0.0000E+00  0.0000E+00  0.6000E+01  0.6000E+01
    -29.642  0.0000E+00  0.0000E+00  0.6000E+01  0.6000E+01
    -29.460  0.0000E+00  0.0000E+00  0.6000E+01  0.6000E+01
    -29.277  0.1093E+02  0.1093E+02  0.7996E+01  0.7996E+01
    -29.095  0.0000E+00  0.0000E+00  0.8000E+01  0.8000E+01
    -28.912  0.0000E+00  0.0000E+00  0.8000E+01  0.8000E+01
    -28.730  0.0000E+00  0.0000E+00  0.8000E+01  0.8000E+01
    -28.547  0.0000E+00  0.0000E+00  0.8000E+01  0.8000E+01
    -28.365  0.0000E+00  0.0000E+00  0.8000E+01  0.8000E+01
    -28.182  0.0000E+00  0.0000E+00  0.8000E+01  0.8000E+01
    -28.000  0.0000E+00  0.0000E+00  0.8000E+01  0.8000E+01
    -27.817  0.0000E+00  0.0000E+00  0.8000E+01  0.8000E+01
    -27.635  0.0000E+00  0.0000E+00  0.1000E+02  0.1000E+02
    -27.452  0.0000E+00  0.0000E+00  0.1000E+02  0.1000E+02
    -27.270  0.0000E+00  0.0000E+00  0.1000E+02  0.1000E+02
    -27.087  0.0000E+00  0.0000E+00  0.1000E+02  0.1000E+02
    -26.904  0.1076E+02  0.1076E+02  0.1196E+02  0.1196E+02
    -26.722  0.1096E+02  0.1096E+02  0.1400E+02  0.1400E+02
    -26.539  0.0000E+00  0.0000E+00  0.1400E+02  0.1400E+02
    -26.357  0.0000E+00  0.0000E+00  0.1400E+02  0.1400E+02
    -26.174  0.8048E+01  0.8048E+01  0.1547E+02  0.1547E+02
    -25.992  0.0000E+00  0.0000E+00  0.1800E+02  0.1800E+02
    -25.809  0.0000E+00  0.0000E+00  0.1800E+02  0.1800E+02
    -25.627  0.0000E+00  0.0000E+00  0.1800E+02  0.1800E+02
    -25.444  0.0000E+00  0.0000E+00  0.1800E+02  0.1800E+02
    -25.262  0.0000E+00  0.0000E+00  0.1800E+02  0.1800E+02
    -25.079  0.0000E+00  0.0000E+00  0.1800E+02  0.1800E+02
    -24.897  0.0000E+00  0.0000E+00  0.1800E+02  0.1800E+02
    -24.714  0.0000E+00  0.0000E+00  0.1800E+02  0.1800E+02
    -24.532  0.0000E+00  0.0000E+00  0.1800E+02  0.1800E+02
    -24.349  0.0000E+00  0.0000E+00  0.1800E+02  0.1800E+02
    -24.167  0.0000E+00  0.0000E+00  0.1800E+02  0.1800E+02
    -23.984  0.0000E+00  0.0000E+00  0.1800E+02  0.1800E+02
    -23.802  0.0000E+00  0.0000E+00  0.1800E+02  0.1800E+02
    -23.619  0.0000E+00  0.0000E+00  0.1800E+02  0.1800E+02
    -23.437  0.0000E+00  0.0000E+00  0.1800E+02  0.1800E+02
    -23.254  0.1071E+02  0.1071E+02  0.1996E+02  0.1996E+02
    -23.072  0.0000E+00  0.0000E+00  0.2000E+02  0.2000E+02
    -22.889  0.0000E+00  0.0000E+00  0.2000E+02  0.2000E+02
    -22.707  0.1096E+02  0.1096E+02  0.2200E+02  0.2200E+02
    -22.524  0.0000E+00  0.0000E+00  0.2200E+02  0.2200E+02
    -22.342  0.1587E+02  0.1587E+02  0.2690E+02  0.2690E+02
    -22.159  0.2191E+02  0.2191E+02  0.3400E+02  0.3400E+02
    -21.977  0.0000E+00  0.0000E+00  0.3400E+02  0.3400E+02
    -21.794  0.0000E+00  0.0000E+00  0.3400E+02  0.3400E+02
    -21.611  0.0000E+00  0.0000E+00  0.3400E+02  0.3400E+02
    -21.429  0.0000E+00  0.0000E+00  0.3400E+02  0.3400E+02
    -21.246  0.0000E+00  0.0000E+00  0.3400E+02  0.3400E+02
    -21.064  0.0000E+00  0.0000E+00  0.3400E+02  0.3400E+02
    -20.881  0.0000E+00  0.0000E+00  0.3400E+02  0.3400E+02
    -20.699  0.0000E+00  0.0000E+00  0.3800E+02  0.3800E+02
    -20.516  0.0000E+00  0.0000E+00  0.3800E+02  0.3800E+02
    -20.334  0.0000E+00  0.0000E+00  0.3800E+02  0.3800E+02
    -20.151  0.0000E+00  0.0000E+00  0.3800E+02  0.3800E+02
    -19.969  0.0000E+00  0.0000E+00  0.3800E+02  0.3800E+02
    -19.786  0.0000E+00  0.0000E+00  0.3800E+02  0.3800E+02
    -19.604  0.0000E+00  0.0000E+00  0.3800E+02  0.3800E+02
    -19.421  0.0000E+00  0.0000E+00  0.3800E+02  0.3800E+02
    -19.239  0.2305E-04  0.2305E-04  0.3800E+02  0.3800E+02
    -19.056  0.1539E-05  0.1539E-05  0.4000E+02  0.4000E+02
    -18.874  0.0000E+00  0.0000E+00  0.4200E+02  0.4200E+02
    -18.691  0.2044E+02  0.2044E+02  0.4573E+02  0.4573E+02
    -18.509  0.4693E-07  0.4693E-07  0.4600E+02  0.4600E+02
    -18.326  0.0000E+00  0.0000E+00  0.5000E+02  0.5000E+02
    -18.144  0.0000E+00  0.0000E+00  0.5000E+02  0.5000E+02
    -17.961  0.0000E+00  0.0000E+00  0.5000E+02  0.5000E+02
    -17.779  0.0000E+00  0.0000E+00  0.5000E+02  0.5000E+02
    -17.596  0.1663E+02  0.1663E+02  0.5304E+02  0.5304E+02
    -17.414  0.0000E+00  0.0000E+00  0.5400E+02  0.5400E+02
    -17.231  0.1096E+02  0.1096E+02  0.5800E+02  0.5800E+02
    -17.049  0.2043E-09  0.2043E-09  0.5800E+02  0.5800E+02
    -16.866  0.0000E+00  0.0000E+00  0.6000E+02  0.6000E+02
    -16.683  0.3989E-11  0.3988E-11  0.6000E+02  0.6000E+02
    -16.501  0.0000E+00  0.0000E+00  0.6200E+02  0.6200E+02
    -16.318  0.0000E+00  0.0000E+00  0.6200E+02  0.6200E+02
    -16.136  0.0000E+00  0.0000E+00  0.6200E+02  0.6200E+02
    -15.953  0.2053E+00  0.2053E+00  0.6204E+02  0.6204E+02
    -15.771  0.1669E-02  0.1669E-02  0.6400E+02  0.6400E+02
    -15.588  0.0000E+00  0.0000E+00  0.6600E+02  0.6600E+02
    -15.406  0.1096E+02  0.1096E+02  0.6800E+02  0.6800E+02
    -15.223  0.0000E+00  0.0000E+00  0.6800E+02  0.6800E+02
    -15.041  0.0000E+00  0.0000E+00  0.6800E+02  0.6800E+02
    -14.858  0.0000E+00  0.0000E+00  0.6800E+02  0.6800E+02
    -14.676  0.2571E+02  0.2571E+02  0.7469E+02  0.7469E+02
    -14.493  0.0000E+00  0.0000E+00  0.7800E+02  0.7800E+02
    -14.311  0.0000E+00  0.0000E+00  0.7800E+02  0.7800E+02
    -14.128  0.1096E+02  0.1096E+02  0.8000E+02  0.8000E+02
    -13.946  0.1096E+02  0.1096E+02  0.8400E+02  0.8400E+02
    -13.763  0.2219E+02  0.2219E+02  0.9005E+02  0.9005E+02
    -13.581  0.0000E+00  0.0000E+00  0.9200E+02  0.9200E+02
    -13.398  0.1188E+02  0.1188E+02  0.9417E+02  0.9417E+02
    -13.216  0.8569E-01  0.8569E-01  0.9602E+02  0.9602E+02
    -13.033  0.1201E+00  0.1201E+00  0.1000E+03  0.1000E+03
    -12.851  0.1096E+02  0.1096E+02  0.1040E+03  0.1040E+03
    -12.668  0.0000E+00  0.0000E+00  0.1080E+03  0.1080E+03
    -12.486  0.0000E+00  0.0000E+00  0.1100E+03  0.1100E+03
    -12.303  0.1096E+02  0.1096E+02  0.1140E+03  0.1140E+03
    -12.121  0.2190E+02  0.2190E+02  0.1180E+03  0.1180E+03
    -11.938  0.0000E+00  0.0000E+00  0.1180E+03  0.1180E+03
    -11.756  0.0000E+00  0.0000E+00  0.1200E+03  0.1200E+03
    -11.573  0.3514E+00  0.3514E+00  0.1201E+03  0.1201E+03
    -11.390  0.2459E-11  0.2459E-11  0.1220E+03  0.1220E+03
    -11.208  0.1096E+02  0.1096E+02  0.1260E+03  0.1260E+03
    -11.025  0.1096E+02  0.1096E+02  0.1320E+03  0.1320E+03
    -10.843  0.0000E+00  0.0000E+00  0.1320E+03  0.1320E+03
    -10.660  0.1096E+02  0.1096E+02  0.1340E+03  0.1340E+03
    -10.478  0.1096E+02  0.1096E+02  0.1360E+03  0.1360E+03
    -10.295  0.0000E+00  0.0000E+00  0.1380E+03  0.1380E+03
    -10.113  0.1096E+02  0.1096E+02  0.1420E+03  0.1420E+03
     -9.930  0.8937E+01  0.8937E+01  0.1436E+03  0.1436E+03
     -9.748  0.2420E+02  0.2420E+02  0.1504E+03  0.1504E+03
     -9.565  0.1308E-11  0.1308E-11  0.1540E+03  0.1540E+03
     -9.383  0.0000E+00  0.0000E+00  0.1560E+03  0.1560E+03
     -9.200  0.0000E+00  0.0000E+00  0.1560E+03  0.1560E+03
     -9.018  0.0000E+00  0.0000E+00  0.1560E+03  0.1560E+03
     -8.835  0.0000E+00  0.0000E+00  0.1560E+03  0.1560E+03
     -8.653  0.0000E+00  0.0000E+00  0.1560E+03  0.1560E+03
     -8.470  0.2433E-14  0.2433E-14  0.1560E+03  0.1560E+03
     -8.288  0.1096E+02  0.1096E+02  0.1600E+03  0.1600E+03
     -8.105  0.0000E+00  0.0000E+00  0.1600E+03  0.1600E+03
     -7.923  0.0000E+00  0.0000E+00  0.1600E+03  0.1600E+03
     -7.740  0.0000E+00  0.0000E+00  0.1600E+03  0.1600E+03
     -7.558  0.0000E+00  0.0000E+00  0.1600E+03  0.1600E+03
     -7.375  0.1096E+02  0.1096E+02  0.1620E+03  0.1620E+03
     -7.193  0.1096E+02  0.1096E+02  0.1640E+03  0.1640E+03
     -7.010  0.0000E+00  0.0000E+00  0.1660E+03  0.1660E+03
     -6.828  0.0000E+00  0.0000E+00  0.1660E+03  0.1660E+03
     -6.645  0.0000E+00  0.0000E+00  0.1660E+03  0.1660E+03
     -6.463  0.0000E+00  0.0000E+00  0.1660E+03  0.1660E+03
     -6.280  0.0000E+00  0.0000E+00  0.1660E+03  0.1660E+03
     -6.097  0.0000E+00  0.0000E+00  0.1660E+03  0.1660E+03
     -5.915  0.0000E+00  0.0000E+00  0.1660E+03  0.1660E+03
     -5.732  0.0000E+00  0.0000E+00  0.1660E+03  0.1660E+03
     -5.550  0.0000E+00  0.0000E+00  0.1660E+03  0.1660E+03
     -5.367  0.1096E+02  0.1096E+02  0.1680E+03  0.1680E+03
     -5.185  0.0000E+00  0.0000E+00  0.1680E+03  0.1680E+03
     -5.002  0.1065E+02  0.1065E+02  0.1699E+03  0.1699E+03
     -4.820  0.0000E+00  0.0000E+00  0.1720E+03  0.1720E+03
     -4.637  0.0000E+00  0.0000E+00  0.1740E+03  0.1740E+03
     -4.455  0.0000E+00  0.0000E+00  0.1740E+03  0.1740E+03
     -4.272  0.3877E+01  0.3877E+01  0.1747E+03  0.1747E+03
     -4.090  0.8243E+01  0.8243E+01  0.1775E+03  0.1775E+03
     -3.907  0.1096E+02  0.1096E+02  0.1820E+03  0.1820E+03
     -3.725  0.0000E+00  0.0000E+00  0.1840E+03  0.1840E+03
     -3.542  0.0000E+00  0.0000E+00  0.1840E+03  0.1840E+03
     -3.360  0.0000E+00  0.0000E+00  0.1840E+03  0.1840E+03
     -3.177  0.1095E+02  0.1095E+02  0.1860E+03  0.1860E+03
     -2.995  0.3744E-07  0.3740E-07  0.1860E+03  0.1860E+03
     -2.812  0.3150E-02  0.3149E-02  0.1880E+03  0.1880E+03
     -2.630  0.1096E+02  0.1096E+02  0.1920E+03  0.1920E+03
     -2.447  0.0000E+00  0.0000E+00  0.1920E+03  0.1920E+03
     -2.265  0.0000E+00  0.0000E+00  0.1920E+03  0.1920E+03
     -2.082  0.0000E+00  0.0000E+00  0.1920E+03  0.1920E+03
     -1.900  0.4999E+00  0.4997E+00  0.1921E+03  0.1921E+03
     -1.717  0.6252E-07  0.6241E-07  0.1940E+03  0.1940E+03
     -1.535  0.0000E+00  0.0000E+00  0.1980E+03  0.1980E+03
     -1.352  0.1096E+02  0.1096E+02  0.2000E+03  0.2000E+03
     -1.170  0.1108E+02  0.1108E+02  0.2020E+03  0.2020E+03
     -0.987  0.1096E+02  0.1096E+02  0.2060E+03  0.2060E+03
     -0.804  0.1056E+02  0.1056E+02  0.2119E+03  0.2119E+03
     -0.622  0.1096E+02  0.1096E+02  0.2160E+03  0.2160E+03
     -0.439  0.1095E+02  0.1095E+02  0.2200E+03  0.2200E+03
     -0.257  0.1096E+02  0.1096E+02  0.2260E+03  0.2260E+03
     -0.074  0.2112E+02  0.2112E+02  0.2319E+03  0.2319E+03
      0.108  0.9891E+01  0.9889E+01  0.2358E+03  0.2358E+03
      0.291  0.1154E+01  0.1153E+01  0.2382E+03  0.2382E+03
      0.473  0.1872E+02  0.1872E+02  0.2454E+03  0.2454E+03
      0.656  0.3176E+02  0.3176E+02  0.2518E+03  0.2518E+03
      0.838  0.0000E+00  0.0000E+00  0.2560E+03  0.2560E+03
      1.021  0.0000E+00  0.0000E+00  0.2560E+03  0.2560E+03
      1.203  0.0000E+00  0.0000E+00  0.2560E+03  0.2560E+03
      1.386  0.0000E+00  0.0000E+00  0.2560E+03  0.2560E+03
      1.568  0.0000E+00  0.0000E+00  0.2560E+03  0.2560E+03
      1.751  0.0000E+00  0.0000E+00  0.2560E+03  0.2560E+03
      1.933  0.0000E+00  0.0000E+00  0.2560E+03  0.2560E+03
      2.116  0.0000E+00  0.0000E+00  0.2560E+03  0.2560E+03
      2.298  0.0000E+00  0.0000E+00  0.2560E+03  0.2560E+03
      2.481  0.0000E+00  0.0000E+00  0.2560E+03  0.2560E+03
      2.663  0.0000E+00  0.0000E+00  0.2560E+03  0.2560E+03
      2.846  0.0000E+00  0.0000E+00  0.2560E+03  0.2560E+03
      3.028  0.0000E+00  0.0000E+00  0.2560E+03  0.2560E+03
      3.211  0.0000E+00  0.0000E+00  0.2560E+03  0.2560E+03
