   55   55    1    2
  0.1454545E+03  0.2000000E-08  0.2000000E-08  0.2000000E-08  0.5000000E-15
  1.000000000000000E-004
  CAR 
 c2_oh2_ruthenium_mol                    
    166      1    128
 
  0.0000000E+00  0.0000000E+00  0.0000000E+00  0.1000000E+01
    1      -49.055478    -49.055477
    2      -48.941351    -48.941350
    3      -48.694487    -48.694487
    4      -29.297443    -29.297443
    5      -27.746700    -27.746700
    6      -26.919320    -26.919320
    7      -26.778628    -26.778628
    8      -26.178841    -26.178841
    9      -26.121537    -26.121537
   10      -23.268320    -23.268320
   11      -22.743140    -22.743140
   12      -22.464261    -22.464261
   13      -22.398185    -22.398185
   14      -22.340620    -22.340620
   15      -22.293277    -22.293277
   16      -22.219466    -22.219466
   17      -22.184317    -22.184317
   18      -20.817572    -20.817572
   19      -20.780880    -20.780881
   20      -19.206212    -19.206212
   21      -19.019912    -19.019912
   22      -18.749683    -18.749683
   23      -18.698998    -18.698998
   24      -18.467967    -18.467967
   25      -18.432070    -18.432070
   26      -17.635672    -17.635672
   27      -17.596400    -17.596400
   28      -17.323995    -17.323995
   29      -17.286400    -17.286400
   30      -17.001763    -17.001763
   31      -16.632771    -16.632771
   32      -15.938717    -15.938717
   33      -15.745376    -15.745376
   34      -15.451698    -15.451698
   35      -14.785304    -14.785304
   36      -14.749862    -14.749862
   37      -14.731933    -14.731933
   38      -14.673006    -14.673006
   39      -14.579392    -14.579392
   40      -14.155669    -14.155669
   41      -14.035795    -14.035795
   42      -13.977579    -13.977579
   43      -13.903102    -13.903102
   44      -13.825241    -13.825241
   45      -13.782576    -13.782576
   46      -13.749758    -13.749758
   47      -13.463925    -13.463925
   48      -13.388454    -13.388454
   49      -13.198574    -13.198574
   50      -13.147623    -13.147623
   51      -13.016943    -13.016943
   52      -12.904828    -12.904828
   53      -12.794189    -12.794189
   54      -12.772845    -12.772846
   55      -12.569964    -12.569964
   56      -12.411769    -12.411769
   57      -12.374889    -12.374889
   58      -12.195709    -12.195709
   59      -12.141700    -12.141700
   60      -11.872267    -11.872267
   61      -11.559918    -11.559918
   62      -11.339296    -11.339296
   63      -11.258425    -11.258425
   64      -11.112109    -11.112109
   65      -11.107863    -11.107863
   66      -11.082240    -11.082240
   67      -10.731495    -10.731495
   68      -10.536360    -10.536360
   69      -10.441991    -10.441991
   70      -10.208222    -10.208222
   71      -10.171116    -10.171116
   72       -9.936703     -9.936703
   73       -9.844373     -9.844373
   74       -9.827704     -9.827704
   75       -9.767769     -9.767768
   76       -9.742148     -9.742148
   77       -9.702114     -9.702114
   78       -9.513519     -9.513519
   79       -8.412805     -8.412805
   80       -8.365538     -8.365538
   81       -7.424550     -7.424549
   82       -7.247252     -7.247251
   83       -7.112754     -7.112753
   84       -5.418587     -5.418587
   85       -5.015852     -5.015852
   86       -4.939133     -4.939133
   87       -4.742793     -4.742793
   88       -4.269653     -4.269653
   89       -4.094606     -4.094606
   90       -3.998680     -3.998679
   91       -3.946692     -3.946692
   92       -3.828399     -3.828398
   93       -3.200441     -3.200441
   94       -2.953706     -2.953705
   95       -2.787818     -2.787818
   96       -2.691327     -2.691327
   97       -1.887635     -1.887633
   98       -1.676696     -1.676694
   99       -1.666746     -1.666743
  100       -1.405816     -1.405814
  101       -1.211842     -1.211840
  102       -1.153304     -1.153302
  103       -1.055825     -1.055825
  104       -0.934478     -0.934476
  105       -0.891116     -0.891114
  106       -0.817190     -0.817189
  107       -0.746509     -0.746507
  108       -0.675974     -0.675973
  109       -0.582361     -0.582360
  110       -0.460828     -0.460827
  111       -0.413442     -0.413441
  112       -0.377750     -0.377749
  113       -0.298938     -0.298935
  114       -0.204479     -0.204476
  115       -0.138574     -0.138573
  116       -0.084697     -0.084695
  117       -0.013634     -0.013629
  118        0.098947      0.098953
  119        0.201256      0.201260
  120        0.299487      0.299488
  121        0.332159      0.332160
  122        0.453357      0.453362
  123        0.469223      0.469224
  124        0.583290      0.583292
  125        0.594602      0.594608
  126        0.646672      0.646678
  127        0.684994      0.684934
  128        0.722039      0.721339
