       N       E                     dE             d eps       ncg     rms          rms(c)
DAV:   1     0.909787790722E+03    0.90979E+03   -0.58809E+04   768   0.974E+02
DAV:   2    -0.694984895723E+02   -0.97929E+03   -0.97294E+03  1024   0.160E+02
DAV:   3    -0.392402230830E+03   -0.32290E+03   -0.32249E+03   832   0.847E+01
DAV:   4    -0.411577431322E+03   -0.19175E+02   -0.19152E+02   704   0.257E+01
DAV:   5    -0.411835836155E+03   -0.25840E+00   -0.25805E+00   832   0.311E+00    0.578E+01
DAV:   6    -0.393846889194E+03    0.17989E+02   -0.39130E+02   576   0.231E+01    0.394E+01
DAV:   7    -0.382889064291E+03    0.10958E+02   -0.22153E+01   704   0.213E+01    0.240E+01
DAV:   8    -0.378557457618E+03    0.43316E+01   -0.17436E+01   768   0.103E+01    0.970E+00
DAV:   9    -0.377351223160E+03    0.12062E+01   -0.41409E+00   768   0.443E+00    0.368E+00
DAV:  10    -0.377297192698E+03    0.54030E-01   -0.59702E-01   768   0.181E+00    0.255E+00
DAV:  11    -0.377192183735E+03    0.10501E+00   -0.87183E-02   768   0.764E-01    0.139E+00
DAV:  12    -0.377098265440E+03    0.93918E-01   -0.11914E-01   768   0.751E-01    0.701E-01
DAV:  13    -0.377074975721E+03    0.23290E-01   -0.16553E-02   768   0.346E-01    0.558E-01
DAV:  14    -0.377063503585E+03    0.11472E-01   -0.22100E-02   768   0.369E-01    0.360E-01
DAV:  15    -0.377063129962E+03    0.37362E-03   -0.53905E-03   768   0.209E-01    0.280E-01
DAV:  16    -0.377068112074E+03   -0.49821E-02   -0.11517E-03   768   0.108E-01    0.186E-01
DAV:  17    -0.377077609242E+03   -0.94972E-02   -0.22481E-03   768   0.140E-01    0.922E-02
DAV:  18    -0.377082073508E+03   -0.44643E-02   -0.60807E-04   768   0.754E-02    0.835E-02
DAV:  19    -0.377086434429E+03   -0.43609E-02   -0.28913E-04   768   0.541E-02    0.464E-02
DAV:  20    -0.377089438081E+03   -0.30037E-02   -0.17003E-04   768   0.387E-02    0.306E-02
DAV:  21    -0.377091412618E+03   -0.19745E-02   -0.86678E-05   768   0.266E-02    0.194E-02
DAV:  22    -0.377092732318E+03   -0.13197E-02   -0.37499E-05   768   0.173E-02    0.126E-02
DAV:  23    -0.377093577641E+03   -0.84532E-03   -0.19764E-05   640   0.112E-02    0.942E-03
DAV:  24    -0.377094125909E+03   -0.54827E-03   -0.13283E-05   640   0.780E-03    0.489E-03
DAV:  25    -0.377094356617E+03   -0.23071E-03   -0.44012E-06   640   0.443E-03    0.273E-03
DAV:  26    -0.377094535451E+03   -0.17883E-03   -0.30817E-06   640   0.339E-03    0.208E-03
DAV:  27    -0.377094640552E+03   -0.10510E-03   -0.18436E-06   640   0.246E-03    0.131E-03
DAV:  28    -0.377094685838E+03   -0.45286E-04   -0.53968E-07   640   0.140E-03    0.835E-04
DAV:  29    -0.377094716090E+03   -0.30252E-04   -0.31561E-07   640   0.113E-03    0.453E-04
DAV:  30    -0.377094729456E+03   -0.13367E-04   -0.34475E-08   640   0.670E-04    0.320E-04
DAV:  31    -0.377094737514E+03   -0.80579E-05    0.34822E-08   640   0.495E-04
   1 F= -.37709474E+03 E0= -.37709474E+03  d E =-.165826E-97  mag=     0.0000
