<?xml version="1.0" encoding="ISO-8859-1"?>
<modeling>
 <generator>
  <i name="program" type="string">vasp </i>
  <i name="version" type="string">5.3.5  </i>
  <i name="subversion" type="string">31Mar14 (build Apr 08 2014 12:00:03) complex                          parallel </i>
  <i name="platform" type="string">NSC-NSCPATCH-BUILD02 </i>
  <i name="date" type="string">2017 03 15 </i>
  <i name="time" type="string">18:38:23 </i>
 </generator>
 <incar>
  <i type="string" name="SYSTEM"> c2_oh2_ruthenium_mol</i>
  <i type="int" name="ISTART">     0</i>
  <i type="string" name="PREC">accurate</i>
  <i type="int" name="IALGO">    38</i>
  <i type="logical" name="ADDGRID"> T  </i>
  <i type="int" name="ISPIN">     2</i>
  <i name="BMIX">      2.00000000</i>
  <i type="int" name="ICHARG">     2</i>
  <i name="EDIFF">      0.00001000</i>
  <i name="EDIFFG">     -0.01000000</i>
  <i name="ENCUT">    700.00000000</i>
  <i name="POTIM">      0.50000000</i>
  <i name="NUPDOWN">      0.00000000</i>
  <i name="NELECT">    166.00000000</i>
  <i type="string" name="LREAL"> Auto</i>
  <i name="TIME">      0.05000000</i>
  <i type="int" name="ISMEAR">     0</i>
  <i name="SIGMA">      0.01000000</i>
  <i type="int" name="ICORELEVEL">     2</i>
  <i type="int" name="CLNT">     1</i>
  <i type="int" name="CLN">     1</i>
  <i type="int" name="INCAR     ">     0</i>
  <i name="CLZ">      0.50000000</i>
 </incar>
 <kpoints>
  <generation param="Monkhorst-Pack">
   <v type="int" name="divisions">       1        1        1 </v>
   <v name="usershift">      0.00000000       0.00000000       0.00000000 </v>
   <v name="genvec1">      1.00000000       0.00000000       0.00000000 </v>
   <v name="genvec2">      0.00000000       1.00000000       0.00000000 </v>
   <v name="genvec3">      0.00000000       0.00000000       1.00000000 </v>
   <v name="shift">      0.00000000       0.00000000       0.00000000 </v>
  </generation>
  <varray name="kpointlist" >
   <v>       0.00000000       0.00000000       0.00000000 </v>
  </varray>
  <varray name="weights" >
   <v>       1.00000000 </v>
  </varray>
 </kpoints>
 <parameters>
  <separator name="general" >
   <i type="string" name="SYSTEM">c2_oh2_ruthenium_mol</i>
   <i type="logical" name="LCOMPAT"> F  </i>
  </separator>
  <separator name="electronic" >
   <i type="string" name="PREC">accura</i>
   <i name="ENMAX">    700.00000000</i>
   <i name="ENAUG">    946.76800000</i>
   <i name="EDIFF">      0.00001000</i>
   <i type="int" name="IALGO">    38</i>
   <i type="int" name="IWAVPR">    10</i>
   <i type="int" name="NBANDS">   128</i>
   <i name="NELECT">    166.00000000</i>
   <i type="int" name="TURBO">     0</i>
   <i type="int" name="IRESTART">     0</i>
   <i type="int" name="NREBOOT">     0</i>
   <i type="int" name="NMIN">     0</i>
   <i name="EREF">      0.00000000</i>
   <separator name="electronic smearing" >
    <i type="int" name="ISMEAR">     0</i>
    <i name="SIGMA">      0.01000000</i>
    <i name="KSPACING">      0.50000000</i>
    <i type="logical" name="KGAMMA"> T  </i>
   </separator>
   <separator name="electronic projectors" >
    <i type="logical" name="LREAL"> T  </i>
    <v name="ROPT">     -0.00025000     -0.00025000     -0.00025000     -0.00025000     -0.00025000     -0.00025000</v>
    <i type="int" name="LMAXPAW">  -100</i>
    <i type="int" name="LMAXMIX">     2</i>
    <i type="logical" name="NLSPLINE"> F  </i>
   </separator>
   <separator name="electronic startup" >
    <i type="int" name="ISTART">     0</i>
    <i type="int" name="ICHARG">     2</i>
    <i type="int" name="INIWAV">     1</i>
   </separator>
   <separator name="electronic spin" >
    <i type="int" name="ISPIN">     2</i>
    <i type="logical" name="LNONCOLLINEAR"> F  </i>
    <v name="MAGMOM">      0.00000000      0.00000000      0.00000000      0.00000000      0.00000000      0.00000000      0.00000000      0.00000000      0.00000000      0.00000000      0.00000000      0.00000000      0.00000000      0.00000000      0.00000000      0.00000000      0.00000000      0.00000000      0.00000000      0.00000000
      0.00000000      0.00000000      0.00000000      0.00000000      0.00000000      0.00000000      0.00000000      0.00000000      0.00000000      0.00000000      0.00000000      0.00000000      0.00000000      0.00000000      0.00000000      0.00000000      0.00000000      0.00000000      0.00000000      0.00000000
      0.00000000      0.00000000      0.00000000      0.00000000      0.00000000      0.00000000      0.00000000      0.00000000      0.00000000      0.00000000      0.00000000      0.00000000      0.00000000      0.00000000      0.00000000</v>
    <i name="NUPDOWN">      0.00000000</i>
    <i type="logical" name="LSORBIT"> F  </i>
    <v name="SAXIS">      0.00000000      0.00000000      1.00000000</v>
    <i type="logical" name="LSPIRAL"> F  </i>
    <v name="QSPIRAL">      0.00000000      0.00000000      0.00000000</v>
    <i type="logical" name="LZEROZ"> F  </i>
   </separator>
   <separator name="electronic exchange-correlation" >
    <i type="logical" name="LASPH"> F  </i>
    <i type="logical" name="LMETAGGA"> F  </i>
   </separator>
   <separator name="electronic convergence" >
    <i type="int" name="NELM">    60</i>
    <i type="int" name="NELMDL">    -5</i>
    <i type="int" name="NELMIN">     2</i>
    <i name="ENINI">    700.00000000</i>
    <separator name="electronic convergence detail" >
     <i type="logical" name="LDIAG"> T  </i>
     <i type="logical" name="LSUBROT"> F  </i>
     <i name="WEIMIN">      0.00000000</i>
     <i name="EBREAK">      0.00000002</i>
     <i name="DEPER">      0.30000000</i>
     <i type="int" name="NRMM">     4</i>
     <i name="TIME">      0.05000000</i>
    </separator>
   </separator>
   <separator name="electronic mixer" >
    <i name="AMIX">      0.40000000</i>
    <i name="BMIX">      2.00000000</i>
    <i name="AMIN">      0.10000000</i>
    <i name="AMIX_MAG">      1.60000000</i>
    <i name="BMIX_MAG">      2.00000000</i>
    <separator name="electronic mixer details" >
     <i type="int" name="IMIX">     4</i>
     <i type="int" name="MAXMIX">   -45</i>
     <i name="WC">    100.00000000</i>
     <i type="int" name="INIMIX">     1</i>
     <i type="int" name="MIXPRE">     1</i>
     <i type="int" name="MREMOVE">     5</i>
    </separator>
   </separator>
   <separator name="electronic dipolcorrection" >
    <i type="logical" name="LDIPOL"> F  </i>
    <i type="logical" name="LMONO"> F  </i>
    <i type="int" name="IDIPOL">     0</i>
    <i name="EPSILON">      1.00000000</i>
    <v name="DIPOL">   -100.00000000   -100.00000000   -100.00000000</v>
    <i name="EFIELD">      0.00000000</i>
   </separator>
  </separator>
  <separator name="grids" >
   <i type="int" name="NGX">   180</i>
   <i type="int" name="NGY">   180</i>
   <i type="int" name="NGZ">   180</i>
   <i type="int" name="NGXF">   360</i>
   <i type="int" name="NGYF">   360</i>
   <i type="int" name="NGZF">   360</i>
   <i type="logical" name="ADDGRID"> T  </i>
  </separator>
  <separator name="ionic" >
   <i type="int" name="NSW">     0</i>
   <i type="int" name="IBRION">    -1</i>
   <i type="int" name="ISIF">     2</i>
   <i name="PSTRESS">      0.00000000</i>
   <i name="EDIFFG">     -0.01000000</i>
   <i type="int" name="NFREE">     0</i>
   <i name="POTIM">      0.50000000</i>
   <i name="SMASS">     -3.00000000</i>
   <i name="SCALEE">      1.00000000</i>
  </separator>
  <separator name="ionic md" >
   <i name="TEBEG">      0.00010000</i>
   <i name="TEEND">      0.00010000</i>
   <i type="int" name="NBLOCK">     1</i>
   <i type="int" name="KBLOCK">     1</i>
   <i type="int" name="NPACO">   256</i>
   <i name="APACO">     16.00000000</i>
  </separator>
  <separator name="symmetry" >
   <i type="int" name="ISYM">     2</i>
   <i name="SYMPREC">      0.00001000</i>
  </separator>
  <separator name="dos" >
   <i type="logical" name="LORBIT"> F  </i>
   <v name="RWIGS">     -1.00000000     -1.00000000     -1.00000000     -1.00000000     -1.00000000     -1.00000000</v>
   <i type="int" name="NEDOS">   301</i>
   <i name="EMIN">     10.00000000</i>
   <i name="EMAX">    -10.00000000</i>
   <i name="EFERMI">      0.00000000</i>
  </separator>
  <separator name="writing" >
   <i type="int" name="NWRITE">     2</i>
   <i type="logical" name="LWAVE"> T  </i>
   <i type="logical" name="LCHARG"> T  </i>
   <i type="logical" name="LPARD"> F  </i>
   <i type="logical" name="LVTOT"> F  </i>
   <i type="logical" name="LVHAR"> F  </i>
   <i type="logical" name="LELF"> F  </i>
   <i type="logical" name="LOPTICS"> F  </i>
   <v name="STM">      0.00000000      0.00000000      0.00000000      0.00000000      0.00000000      0.00000000      0.00000000</v>
  </separator>
  <separator name="performance" >
   <i type="int" name="NPAR">    64</i>
   <i type="int" name="NSIM">     4</i>
   <i type="int" name="NBLK">    -1</i>
   <i type="logical" name="LPLANE"> T  </i>
   <i type="logical" name="LSCALAPACK"> T  </i>
   <i type="logical" name="LSCAAWARE"> F  </i>
   <i type="logical" name="LSCALU"> F  </i>
   <i type="logical" name="LASYNC"> F  </i>
   <i type="logical" name="LORBITALREAL"> F  </i>
  </separator>
  <separator name="miscellaneous" >
   <i type="int" name="IDIOT">     3</i>
   <i type="logical" name="LMUSIC"> F  </i>
   <v name="POMASS">     12.01100000     12.01100000      1.00000000     14.00100000     16.00000000    101.07000000</v>
   <v name="DARWINR">      0.00000000      0.00000000      0.00000000      0.00000000      0.00000000      0.00000000</v>
   <v name="DARWINV">      1.00000000      1.00000000      1.00000000      1.00000000      1.00000000      1.00000000</v>
   <i type="logical" name="LCORR"> T  </i>
  </separator>
  <i type="logical" name="GGA_COMPAT"> T  </i>
  <i type="logical" name="LBERRY"> F  </i>
  <i type="int" name="ICORELEVEL">     2</i>
  <i type="int" name="CLNT">     1</i>
  <i type="int" name="CLN">     1</i>
  <i type="int" name="CLL">     0</i>
  <i name="CLZ">      0.50000000</i>
  <i type="logical" name="LDAU"> F  </i>
  <i type="int" name="I_CONSTRAINED_M">     0</i>
  <separator name="electronic exchange-correlation" >
   <i type="string" name="GGA">--</i>
   <i type="int" name="VOSKOWN">     0</i>
   <i type="logical" name="LHFCALC"> F  </i>
   <i type="string" name="PRECFOCK"></i>
   <i type="logical" name="LSYMGRAD"> F  </i>
   <i type="logical" name="LHFONE"> F  </i>
   <i type="logical" name="LRHFCALC"> F  </i>
   <i type="logical" name="LTHOMAS"> F  </i>
   <i type="logical" name="LMODELHF"> F  </i>
   <i name="ENCUT4O">     -1.00000000</i>
   <i type="int" name="EXXOEP">     0</i>
   <i type="int" name="FOURORBIT">     0</i>
   <i name="AEXX">      0.00000000</i>
   <i name="HFALPHA">      0.00000000</i>
   <i name="MCALPHA">      0.00000000</i>
   <i name="ALDAX">      1.00000000</i>
   <i name="AGGAX">      1.00000000</i>
   <i name="ALDAC">      1.00000000</i>
   <i name="AGGAC">      1.00000000</i>
   <i type="int" name="NKREDX">     1</i>
   <i type="int" name="NKREDY">     1</i>
   <i type="int" name="NKREDZ">     1</i>
   <i type="logical" name="SHIFTRED"> F  </i>
   <i type="logical" name="ODDONLY"> F  </i>
   <i type="logical" name="EVENONLY"> F  </i>
   <i type="int" name="LMAXFOCK">     0</i>
   <i type="int" name="NMAXFOCKAE">     0</i>
   <i type="logical" name="LFOCKAEDFT"> F  </i>
   <i name="HFSCREEN">      0.00000000</i>
   <i name="HFSCREENC">      0.00000000</i>
   <i type="int" name="NBANDSGWLOW">     0</i>
  </separator>
  <separator name="vdW DFT" >
   <i type="logical" name="LUSE_VDW"> F  </i>
   <i name="Zab_VDW">     -0.84910000</i>
   <i name="PARAM1">      0.12340000</i>
   <i name="PARAM2">      1.00000000</i>
   <i name="PARAM3">      0.00000000</i>
  </separator>
  <separator name="model GW" >
   <i type="int" name="MODEL_GW">     0</i>
   <i name="MODEL_EPS0">     87.27272727</i>
   <i name="MODEL_ALPHA">      1.00000000</i>
  </separator>
  <separator name="linear response parameters" >
   <i type="logical" name="LEPSILON"> F  </i>
   <i type="logical" name="LRPA"> F  </i>
   <i type="logical" name="LNABLA"> F  </i>
   <i type="logical" name="LVEL"> F  </i>
   <i type="int" name="KINTER">     0</i>
   <i name="CSHIFT">      0.10000000</i>
   <i name="OMEGAMAX">     -1.00000000</i>
   <i name="DEG_THRESHOLD">      0.00200000</i>
  </separator>
  <separator name="orbital magnetization" >
   <i type="logical" name="NUCIND"> F  </i>
   <v name="MAGPOS">      0.00000000      0.00000000      0.00000000</v>
   <i type="logical" name="LNICSALL"> T  </i>
   <i type="logical" name="ORBITALMAG"> F  </i>
   <i type="logical" name="LMAGBLOCH"> F  </i>
   <i type="logical" name="LCHIMAG"> F  </i>
   <i type="logical" name="LGAUGE"> T  </i>
   <i type="int" name="MAGATOM">     0</i>
   <v name="MAGDIPOL">      0.00000000      0.00000000      0.00000000</v>
   <v name="AVECCONST">      0.00000000      0.00000000      0.00000000</v>
  </separator>
  <separator name="response functions" >
   <i type="logical" name="LADDER"> F  </i>
   <i type="logical" name="LFXC"> F  </i>
   <i type="logical" name="LHARTREE"> T  </i>
   <i type="int" name="IBSE">     0</i>
   <i type="logical" name="LTCTE"> F  </i>
   <i type="logical" name="LTETE"> F  </i>
   <i type="logical" name="LTRIPLET"> F  </i>
   <i type="logical" name="LFXCEPS"> F  </i>
   <i type="logical" name="LFXHEG"> F  </i>
   <i type="logical" name="L2ORDER"> F  </i>
   <i type="logical" name="LUSEW"> F  </i>
   <i name="ENCUTGW">     -2.00000000</i>
   <i name="ENCUTGWSOFT">     -2.00000000</i>
   <i name="ENCUTLF">     -1.00000000</i>
   <i type="int" name="LMAXMP2">    -1</i>
   <i name="SCISSOR">      0.00000000</i>
   <i type="int" name="NOMEGA">     0</i>
   <i type="int" name="NOMEGAR">     0</i>
   <i type="int" name="NBANDSGW">    -1</i>
   <i type="int" name="NBANDSO">    -1</i>
   <i type="int" name="NBANDSV">    -1</i>
   <i type="int" name="NELM">     1</i>
   <i type="int" name="DIM">     3</i>
   <i type="int" name="ANTIRES">     0</i>
   <i name="OMEGAMAX">    -30.00000000</i>
   <i name="OMEGAMIN">    -30.00000000</i>
   <i name="OMEGATL">   -200.00000000</i>
   <i type="int" name="OMEGAGRID">     0</i>
   <i name="CSHIFT">     -0.10000000</i>
   <i type="logical" name="SELFENERGY"> F  </i>
   <i type="logical" name="LSPECTRAL"> F  </i>
   <i type="logical" name="ODDONLYGW"> F  </i>
   <i type="logical" name="EVENONLYGW"> F  </i>
   <i type="int" name="NKREDLFX">     1</i>
   <i type="int" name="NKREDLFY">     1</i>
   <i type="int" name="NKREDLFZ">     1</i>
   <i type="int" name="MAXMEM">  1800</i>
   <i type="int" name="TELESCOPE">     0</i>
   <i type="int" name="TAUPAR">     1</i>
  </separator>
  <separator name="External order field" >
   <i name="OFIELD_KAPPA">      0.00000000</i>
   <v name="OFIELD_K">      0.00000000      0.00000000      0.00000000</v>
   <i name="OFIELD_Q6_NEAR">      0.00000000</i>
   <i name="OFIELD_Q6_FAR">      0.00000000</i>
   <i name="OFIELD_A">      0.00000000</i>
  </separator>
 </parameters>
 <atominfo>
  <atoms>      55 </atoms>
  <types>       6 </types>
  <array name="atoms" >
   <dimension dim="1">ion</dimension>
   <field type="string">element</field>
   <field type="int">atomtype</field>
   <set>
    <rc><c>C </c><c>   1</c></rc>
    <rc><c>C </c><c>   2</c></rc>
    <rc><c>C </c><c>   2</c></rc>
    <rc><c>C </c><c>   2</c></rc>
    <rc><c>C </c><c>   2</c></rc>
    <rc><c>C </c><c>   2</c></rc>
    <rc><c>C </c><c>   2</c></rc>
    <rc><c>C </c><c>   2</c></rc>
    <rc><c>C </c><c>   2</c></rc>
    <rc><c>C </c><c>   2</c></rc>
    <rc><c>C </c><c>   2</c></rc>
    <rc><c>C </c><c>   2</c></rc>
    <rc><c>C </c><c>   2</c></rc>
    <rc><c>C </c><c>   2</c></rc>
    <rc><c>C </c><c>   2</c></rc>
    <rc><c>C </c><c>   2</c></rc>
    <rc><c>C </c><c>   2</c></rc>
    <rc><c>C </c><c>   2</c></rc>
    <rc><c>C </c><c>   2</c></rc>
    <rc><c>C </c><c>   2</c></rc>
    <rc><c>C </c><c>   2</c></rc>
    <rc><c>C </c><c>   2</c></rc>
    <rc><c>C </c><c>   2</c></rc>
    <rc><c>C </c><c>   2</c></rc>
    <rc><c>C </c><c>   2</c></rc>
    <rc><c>H </c><c>   3</c></rc>
    <rc><c>H </c><c>   3</c></rc>
    <rc><c>H </c><c>   3</c></rc>
    <rc><c>H </c><c>   3</c></rc>
    <rc><c>H </c><c>   3</c></rc>
    <rc><c>H </c><c>   3</c></rc>
    <rc><c>H </c><c>   3</c></rc>
    <rc><c>H </c><c>   3</c></rc>
    <rc><c>H </c><c>   3</c></rc>
    <rc><c>H </c><c>   3</c></rc>
    <rc><c>H </c><c>   3</c></rc>
    <rc><c>H </c><c>   3</c></rc>
    <rc><c>H </c><c>   3</c></rc>
    <rc><c>H </c><c>   3</c></rc>
    <rc><c>H </c><c>   3</c></rc>
    <rc><c>H </c><c>   3</c></rc>
    <rc><c>H </c><c>   3</c></rc>
    <rc><c>H </c><c>   3</c></rc>
    <rc><c>H </c><c>   3</c></rc>
    <rc><c>H </c><c>   3</c></rc>
    <rc><c>H </c><c>   3</c></rc>
    <rc><c>H </c><c>   3</c></rc>
    <rc><c>H </c><c>   3</c></rc>
    <rc><c>N </c><c>   4</c></rc>
    <rc><c>N </c><c>   4</c></rc>
    <rc><c>N </c><c>   4</c></rc>
    <rc><c>N </c><c>   4</c></rc>
    <rc><c>N </c><c>   4</c></rc>
    <rc><c>O </c><c>   5</c></rc>
    <rc><c>Ru</c><c>   6</c></rc>
   </set>
  </array>
  <array name="atomtypes" >
   <dimension dim="1">type</dimension>
   <field type="int">atomspertype</field>
   <field type="string">element</field>
   <field>mass</field>
   <field>valence</field>
   <field type="string">pseudopotential</field>
   <set>
    <rc><c>   1</c><c>C </c><c>     12.01100000</c><c>      4.50000000</c><c>  PAW_PBE C_h 06Feb2004                 </c></rc>
    <rc><c>  24</c><c>C </c><c>     12.01100000</c><c>      4.00000000</c><c>  PAW_PBE C_h 06Feb2004                 </c></rc>
    <rc><c>  23</c><c>H </c><c>      1.00000000</c><c>      1.00000000</c><c>  PAW_PBE H 15Jun2001                   </c></rc>
    <rc><c>   5</c><c>N </c><c>     14.00100000</c><c>      5.00000000</c><c>  PAW_PBE N_h 06Feb2004                 </c></rc>
    <rc><c>   1</c><c>O </c><c>     16.00000000</c><c>      6.00000000</c><c>  PAW_PBE O_h 06Feb2004                 </c></rc>
    <rc><c>   1</c><c>Ru</c><c>    101.07000000</c><c>     14.00000000</c><c>  PAW_PBE Ru_pv 28Jan2005               </c></rc>
   </set>
  </array>
 </atominfo>
 <structure name="initialpos" >
  <crystal>
   <varray name="basis" >
    <v>      20.00000000       0.00000000       0.00000000 </v>
    <v>       0.00000000      20.00000000       0.00000000 </v>
    <v>       0.00000000       0.00000000      20.00000000 </v>
   </varray>
   <i name="volume">   8000.00000000 </i>
   <varray name="rec_basis" >
    <v>       0.05000000       0.00000000       0.00000000 </v>
    <v>       0.00000000       0.05000000       0.00000000 </v>
    <v>       0.00000000       0.00000000       0.05000000 </v>
   </varray>
  </crystal>
  <varray name="positions" >
   <v>       0.45581208       0.52423376       0.38051465 </v>
   <v>       0.43793752       0.56561110       0.32757008 </v>
   <v>       0.29334713       0.47671938       0.56830116 </v>
   <v>       0.47372925       0.61530131       0.44986522 </v>
   <v>       0.45595175       0.65963312       0.39935201 </v>
   <v>       0.43785737       0.63472201       0.33675972 </v>
   <v>       0.52307882       0.32955005       0.67474498 </v>
   <v>       0.49710163       0.37190466       0.62618823 </v>
   <v>       0.60227374       0.41933300       0.60593616 </v>
   <v>       0.63096398       0.37761922       0.65422416 </v>
   <v>       0.73964927       0.52855915       0.53463181 </v>
   <v>       0.70082162       0.56612858       0.49044049 </v>
   <v>       0.63257913       0.55363620       0.48652424 </v>
   <v>       0.63952130       0.46927713       0.56732841 </v>
   <v>       0.70843899       0.47974495       0.57314689 </v>
   <v>       0.59134754       0.33224398       0.68903016 </v>
   <v>       0.36211554       0.48866484       0.56417415 </v>
   <v>       0.40790931       0.62211625       0.69058213 </v>
   <v>       0.47619960       0.62606623       0.67660612 </v>
   <v>       0.50295190       0.58590820       0.62668073 </v>
   <v>       0.39825425       0.53800137       0.60426081 </v>
   <v>       0.36904589       0.57756069       0.65398228 </v>
   <v>       0.37289802       0.40579857       0.48223443 </v>
   <v>       0.30486503       0.39173492       0.48443166 </v>
   <v>       0.26422003       0.42785518       0.52821594 </v>
   <v>       0.48989745       0.29510618       0.70074864 </v>
   <v>       0.61334240       0.29968355       0.72673159 </v>
   <v>       0.68424189       0.38076917       0.66478776 </v>
   <v>       0.54225374       0.36233861       0.46129841 </v>
   <v>       0.31579090       0.57306911       0.66420366 </v>
   <v>       0.44416348       0.37118871       0.61364770 </v>
   <v>       0.42392665       0.66833230       0.29622671 </v>
   <v>       0.45642762       0.71313270       0.40950260 </v>
   <v>       0.48809132       0.63358802       0.49907234 </v>
   <v>       0.56912778       0.41808713       0.41480476 </v>
   <v>       0.73767440       0.44963919       0.60776512 </v>
   <v>       0.72277620       0.60481012       0.45904817 </v>
   <v>       0.45570253       0.47012894       0.37468790 </v>
   <v>       0.40614333       0.37888556       0.44852541 </v>
   <v>       0.28443799       0.35306162       0.45202062 </v>
   <v>       0.79326502       0.53703787       0.53892527 </v>
   <v>       0.55589708       0.58769132       0.61440612 </v>
   <v>       0.42412006       0.54328620       0.27986105 </v>
   <v>       0.50894741       0.65984570       0.70400156 </v>
   <v>       0.26265982       0.50568523       0.60265428 </v>
   <v>       0.21072272       0.41813760       0.53105039 </v>
   <v>       0.60090654       0.58197914       0.45254259 </v>
   <v>       0.38544357       0.65296704       0.72941133 </v>
   <v>       0.47424490       0.54794204       0.44140236 </v>
   <v>       0.40180479       0.45306079       0.52108436 </v>
   <v>       0.53520702       0.41608490       0.59173240 </v>
   <v>       0.46544808       0.54254992       0.59041194 </v>
   <v>       0.60138410       0.50650621       0.52397638 </v>
   <v>       0.53073984       0.40562607       0.44215451 </v>
   <v>       0.50088568       0.48087016       0.51934246 </v>
  </varray>
  <varray name="selective"  type="logical" >
   <v type="logical" >  T  T  T </v>
   <v type="logical" >  T  T  T </v>
   <v type="logical" >  T  T  T </v>
   <v type="logical" >  T  T  T </v>
   <v type="logical" >  T  T  T </v>
   <v type="logical" >  T  T  T </v>
   <v type="logical" >  T  T  T </v>
   <v type="logical" >  T  T  T </v>
   <v type="logical" >  T  T  T </v>
   <v type="logical" >  T  T  T </v>
   <v type="logical" >  T  T  T </v>
   <v type="logical" >  T  T  T </v>
   <v type="logical" >  T  T  T </v>
   <v type="logical" >  T  T  T </v>
   <v type="logical" >  T  T  T </v>
   <v type="logical" >  T  T  T </v>
   <v type="logical" >  T  T  T </v>
   <v type="logical" >  T  T  T </v>
   <v type="logical" >  T  T  T </v>
   <v type="logical" >  T  T  T </v>
   <v type="logical" >  T  T  T </v>
   <v type="logical" >  T  T  T </v>
   <v type="logical" >  T  T  T </v>
   <v type="logical" >  T  T  T </v>
   <v type="logical" >  T  T  T </v>
   <v type="logical" >  T  T  T </v>
   <v type="logical" >  T  T  T </v>
   <v type="logical" >  T  T  T </v>
   <v type="logical" >  T  T  T </v>
   <v type="logical" >  T  T  T </v>
   <v type="logical" >  T  T  T </v>
   <v type="logical" >  T  T  T </v>
   <v type="logical" >  T  T  T </v>
   <v type="logical" >  T  T  T </v>
   <v type="logical" >  T  T  T </v>
   <v type="logical" >  T  T  T </v>
   <v type="logical" >  T  T  T </v>
   <v type="logical" >  T  T  T </v>
   <v type="logical" >  T  T  T </v>
   <v type="logical" >  T  T  T </v>
   <v type="logical" >  T  T  T </v>
   <v type="logical" >  T  T  T </v>
   <v type="logical" >  T  T  T </v>
   <v type="logical" >  T  T  T </v>
   <v type="logical" >  T  T  T </v>
   <v type="logical" >  T  T  T </v>
   <v type="logical" >  T  T  T </v>
   <v type="logical" >  T  T  T </v>
   <v type="logical" >  T  T  T </v>
   <v type="logical" >  T  T  T </v>
   <v type="logical" >  T  T  T </v>
   <v type="logical" >  T  T  T </v>
   <v type="logical" >  T  T  T </v>
   <v type="logical" >  T  T  T </v>
   <v type="logical" >  T  T  T </v>
  </varray>
  <nose>
   <v>      -3.00000000       0.00000000       0.00010000       0.00010000 </v>
  </nose>
 </structure>
 <calculation>
  <scstep>
   <time name="dav">   14.76   15.72</time>
   <time name="total">   22.29   23.29</time>
   <energy>
    <i name="alphaZ">     12.91687988 </i>
    <i name="ewald">  23312.85023233 </i>
    <i name="hartreedc"> -28914.88905287 </i>
    <i name="XCdc">    400.96300969 </i>
    <i name="pawpsdc">   5890.45591622 </i>
    <i name="pawaedc">  -5710.10246236 </i>
    <i name="eentropy">     -0.00025803 </i>
    <i name="bandstr">  -1675.80638534 </i>
    <i name="atom">   7593.39991119 </i>
    <i name="e_fr_energy">    909.78779072 </i>
    <i name="e_wo_entrp">    909.78804875 </i>
    <i name="e_0_energy">    909.78791974 </i>
   </energy>
  </scstep>
  <scstep>
   <time name="dav">   18.99   20.28</time>
   <time name="total">   19.00   20.29</time>
   <energy>
    <i name="e_fr_energy">    -69.49848957 </i>
    <i name="e_wo_entrp">    -69.49848957 </i>
    <i name="e_0_energy">    -69.49848957 </i>
   </energy>
  </scstep>
  <scstep>
   <time name="dav">   15.97   16.94</time>
   <time name="total">   15.98   16.95</time>
   <energy>
    <i name="e_fr_energy">   -392.40223083 </i>
    <i name="e_wo_entrp">   -392.40223083 </i>
    <i name="e_0_energy">   -392.40223083 </i>
   </energy>
  </scstep>
  <scstep>
   <time name="dav">   13.76   14.59</time>
   <time name="total">   13.76   14.60</time>
   <energy>
    <i name="e_fr_energy">   -411.57743132 </i>
    <i name="e_wo_entrp">   -411.57743132 </i>
    <i name="e_0_energy">   -411.57743132 </i>
   </energy>
  </scstep>
  <scstep>
   <time name="dav">   15.83   17.01</time>
   <time name="total">   21.16   22.35</time>
   <energy>
    <i name="e_fr_energy">   -411.83583616 </i>
    <i name="e_wo_entrp">   -411.83583616 </i>
    <i name="e_0_energy">   -411.83583616 </i>
   </energy>
  </scstep>
  <scstep>
   <time name="dav">   11.79   12.50</time>
   <time name="total">   24.57   25.34</time>
   <energy>
    <i name="e_fr_energy">   -393.84688919 </i>
    <i name="e_wo_entrp">   -393.84688919 </i>
    <i name="e_0_energy">   -393.84688919 </i>
   </energy>
  </scstep>
  <scstep>
   <time name="dav">   14.03   15.28</time>
   <time name="total">   26.64   28.16</time>
   <energy>
    <i name="e_fr_energy">   -382.88906429 </i>
    <i name="e_wo_entrp">   -382.88906429 </i>
    <i name="e_0_energy">   -382.88906429 </i>
   </energy>
  </scstep>
  <scstep>
   <time name="dav">   15.15   16.43</time>
   <time name="total">   27.85   29.21</time>
   <energy>
    <i name="e_fr_energy">   -378.55745762 </i>
    <i name="e_wo_entrp">   -378.55745762 </i>
    <i name="e_0_energy">   -378.55745762 </i>
   </energy>
  </scstep>
  <scstep>
   <time name="dav">   15.03   16.34</time>
   <time name="total">   27.45   29.03</time>
   <energy>
    <i name="e_fr_energy">   -377.35122316 </i>
    <i name="e_wo_entrp">   -377.35122316 </i>
    <i name="e_0_energy">   -377.35122316 </i>
   </energy>
  </scstep>
  <scstep>
   <time name="dav">   15.15   16.47</time>
   <time name="total">   27.87   29.25</time>
   <energy>
    <i name="e_fr_energy">   -377.29719270 </i>
    <i name="e_wo_entrp">   -377.29719270 </i>
    <i name="e_0_energy">   -377.29719270 </i>
   </energy>
  </scstep>
  <scstep>
   <time name="dav">   15.01   16.32</time>
   <time name="total">   27.79   29.12</time>
   <energy>
    <i name="e_fr_energy">   -377.19218373 </i>
    <i name="e_wo_entrp">   -377.19218373 </i>
    <i name="e_0_energy">   -377.19218373 </i>
   </energy>
  </scstep>
  <scstep>
   <time name="dav">   15.16   16.48</time>
   <time name="total">   27.85   29.42</time>
   <energy>
    <i name="e_fr_energy">   -377.09826544 </i>
    <i name="e_wo_entrp">   -377.09826544 </i>
    <i name="e_0_energy">   -377.09826544 </i>
   </energy>
  </scstep>
  <scstep>
   <time name="dav">   15.02   16.33</time>
   <time name="total">   27.87   29.20</time>
   <energy>
    <i name="e_fr_energy">   -377.07497572 </i>
    <i name="e_wo_entrp">   -377.07497572 </i>
    <i name="e_0_energy">   -377.07497572 </i>
   </energy>
  </scstep>
  <scstep>
   <time name="dav">   15.12   16.42</time>
   <time name="total">   28.10   29.44</time>
   <energy>
    <i name="e_fr_energy">   -377.06350358 </i>
    <i name="e_wo_entrp">   -377.06350358 </i>
    <i name="e_0_energy">   -377.06350358 </i>
   </energy>
  </scstep>
  <scstep>
   <time name="dav">   15.03   16.32</time>
   <time name="total">   27.84   29.16</time>
   <energy>
    <i name="e_fr_energy">   -377.06312996 </i>
    <i name="e_wo_entrp">   -377.06312996 </i>
    <i name="e_0_energy">   -377.06312996 </i>
   </energy>
  </scstep>
  <scstep>
   <time name="dav">   15.03   16.34</time>
   <time name="total">   27.98   29.31</time>
   <energy>
    <i name="e_fr_energy">   -377.06811207 </i>
    <i name="e_wo_entrp">   -377.06811207 </i>
    <i name="e_0_energy">   -377.06811207 </i>
   </energy>
  </scstep>
  <scstep>
   <time name="dav">   15.03   16.32</time>
   <time name="total">   27.84   29.17</time>
   <energy>
    <i name="e_fr_energy">   -377.07760924 </i>
    <i name="e_wo_entrp">   -377.07760924 </i>
    <i name="e_0_energy">   -377.07760924 </i>
   </energy>
  </scstep>
  <scstep>
   <time name="dav">   15.05   16.33</time>
   <time name="total">   27.91   29.24</time>
   <energy>
    <i name="e_fr_energy">   -377.08207351 </i>
    <i name="e_wo_entrp">   -377.08207351 </i>
    <i name="e_0_energy">   -377.08207351 </i>
   </energy>
  </scstep>
  <scstep>
   <time name="dav">   15.03   16.33</time>
   <time name="total">   27.89   29.24</time>
   <energy>
    <i name="e_fr_energy">   -377.08643443 </i>
    <i name="e_wo_entrp">   -377.08643443 </i>
    <i name="e_0_energy">   -377.08643443 </i>
   </energy>
  </scstep>
  <scstep>
   <time name="dav">   15.05   16.35</time>
   <time name="total">   27.73   29.30</time>
   <energy>
    <i name="e_fr_energy">   -377.08943808 </i>
    <i name="e_wo_entrp">   -377.08943808 </i>
    <i name="e_0_energy">   -377.08943808 </i>
   </energy>
  </scstep>
  <scstep>
   <time name="dav">   15.03   16.32</time>
   <time name="total">   27.96   29.33</time>
   <energy>
    <i name="e_fr_energy">   -377.09141262 </i>
    <i name="e_wo_entrp">   -377.09141262 </i>
    <i name="e_0_energy">   -377.09141262 </i>
   </energy>
  </scstep>
  <scstep>
   <time name="dav">   14.94   16.48</time>
   <time name="total">   27.79   29.39</time>
   <energy>
    <i name="e_fr_energy">   -377.09273232 </i>
    <i name="e_wo_entrp">   -377.09273232 </i>
    <i name="e_0_energy">   -377.09273232 </i>
   </energy>
  </scstep>
  <scstep>
   <time name="dav">   13.07   14.28</time>
   <time name="total">   25.98   27.21</time>
   <energy>
    <i name="e_fr_energy">   -377.09357764 </i>
    <i name="e_wo_entrp">   -377.09357764 </i>
    <i name="e_0_energy">   -377.09357764 </i>
   </energy>
  </scstep>
  <scstep>
   <time name="dav">   13.28   14.45</time>
   <time name="total">   26.14   27.34</time>
   <energy>
    <i name="e_fr_energy">   -377.09412591 </i>
    <i name="e_wo_entrp">   -377.09412591 </i>
    <i name="e_0_energy">   -377.09412591 </i>
   </energy>
  </scstep>
  <scstep>
   <time name="dav">   13.09   14.28</time>
   <time name="total">   25.90   27.12</time>
   <energy>
    <i name="e_fr_energy">   -377.09435662 </i>
    <i name="e_wo_entrp">   -377.09435662 </i>
    <i name="e_0_energy">   -377.09435662 </i>
   </energy>
  </scstep>
  <scstep>
   <time name="dav">   13.24   14.43</time>
   <time name="total">   26.14   27.39</time>
   <energy>
    <i name="e_fr_energy">   -377.09453545 </i>
    <i name="e_wo_entrp">   -377.09453545 </i>
    <i name="e_0_energy">   -377.09453545 </i>
   </energy>
  </scstep>
  <scstep>
   <time name="dav">   13.20   14.42</time>
   <time name="total">   26.09   27.34</time>
   <energy>
    <i name="e_fr_energy">   -377.09464055 </i>
    <i name="e_wo_entrp">   -377.09464055 </i>
    <i name="e_0_energy">   -377.09464055 </i>
   </energy>
  </scstep>
  <scstep>
   <time name="dav">   13.21   14.42</time>
   <time name="total">   26.15   27.39</time>
   <energy>
    <i name="e_fr_energy">   -377.09468584 </i>
    <i name="e_wo_entrp">   -377.09468584 </i>
    <i name="e_0_energy">   -377.09468584 </i>
   </energy>
  </scstep>
  <scstep>
   <time name="dav">   13.25   14.44</time>
   <time name="total">   26.14   27.38</time>
   <energy>
    <i name="e_fr_energy">   -377.09471609 </i>
    <i name="e_wo_entrp">   -377.09471609 </i>
    <i name="e_0_energy">   -377.09471609 </i>
   </energy>
  </scstep>
  <scstep>
   <time name="dav">   13.10   14.28</time>
   <time name="total">   26.26   27.48</time>
   <energy>
    <i name="e_fr_energy">   -377.09472946 </i>
    <i name="e_wo_entrp">   -377.09472946 </i>
    <i name="e_0_energy">   -377.09472946 </i>
   </energy>
  </scstep>
  <scstep>
   <time name="dav">   13.08   14.26</time>
   <time name="total">   20.67   21.87</time>
   <energy>
    <i name="alphaZ">     12.91687988 </i>
    <i name="ewald">  23312.85023233 </i>
    <i name="hartreedc"> -29153.64477428 </i>
    <i name="XCdc">    424.27257860 </i>
    <i name="pawpsdc">  81155.65548228 </i>
    <i name="pawaedc"> -80982.38381802 </i>
    <i name="eentropy">     -0.00000000 </i>
    <i name="bandstr">  -2740.16122951 </i>
    <i name="atom">   7593.39991119 </i>
    <i name="e_fr_energy">   -377.09473751 </i>
    <i name="e_wo_entrp">   -377.09473751 </i>
    <i name="e_0_energy">   -377.09473751 </i>
   </energy>
  </scstep>
  <structure>
   <crystal>
    <varray name="basis" >
     <v>      20.00000000       0.00000000       0.00000000 </v>
     <v>       0.00000000      20.00000000       0.00000000 </v>
     <v>       0.00000000       0.00000000      20.00000000 </v>
    </varray>
    <i name="volume">   8000.00000000 </i>
    <varray name="rec_basis" >
     <v>       0.05000000       0.00000000       0.00000000 </v>
     <v>       0.00000000       0.05000000       0.00000000 </v>
     <v>       0.00000000       0.00000000       0.05000000 </v>
    </varray>
   </crystal>
   <varray name="positions" >
    <v>       0.45581208       0.52423376       0.38051465 </v>
    <v>       0.43793752       0.56561110       0.32757008 </v>
    <v>       0.29334713       0.47671938       0.56830116 </v>
    <v>       0.47372925       0.61530131       0.44986522 </v>
    <v>       0.45595175       0.65963312       0.39935201 </v>
    <v>       0.43785737       0.63472201       0.33675972 </v>
    <v>       0.52307882       0.32955005       0.67474498 </v>
    <v>       0.49710163       0.37190466       0.62618823 </v>
    <v>       0.60227374       0.41933300       0.60593616 </v>
    <v>       0.63096398       0.37761922       0.65422416 </v>
    <v>       0.73964927       0.52855915       0.53463181 </v>
    <v>       0.70082162       0.56612858       0.49044049 </v>
    <v>       0.63257913       0.55363620       0.48652424 </v>
    <v>       0.63952130       0.46927713       0.56732841 </v>
    <v>       0.70843899       0.47974495       0.57314689 </v>
    <v>       0.59134754       0.33224398       0.68903016 </v>
    <v>       0.36211554       0.48866484       0.56417415 </v>
    <v>       0.40790931       0.62211625       0.69058213 </v>
    <v>       0.47619960       0.62606623       0.67660612 </v>
    <v>       0.50295190       0.58590820       0.62668073 </v>
    <v>       0.39825425       0.53800137       0.60426081 </v>
    <v>       0.36904589       0.57756069       0.65398228 </v>
    <v>       0.37289802       0.40579857       0.48223443 </v>
    <v>       0.30486503       0.39173492       0.48443166 </v>
    <v>       0.26422003       0.42785518       0.52821594 </v>
    <v>       0.48989745       0.29510618       0.70074864 </v>
    <v>       0.61334240       0.29968355       0.72673159 </v>
    <v>       0.68424189       0.38076917       0.66478776 </v>
    <v>       0.54225374       0.36233861       0.46129841 </v>
    <v>       0.31579090       0.57306911       0.66420366 </v>
    <v>       0.44416348       0.37118871       0.61364770 </v>
    <v>       0.42392665       0.66833230       0.29622671 </v>
    <v>       0.45642762       0.71313270       0.40950260 </v>
    <v>       0.48809132       0.63358802       0.49907234 </v>
    <v>       0.56912778       0.41808713       0.41480476 </v>
    <v>       0.73767440       0.44963919       0.60776512 </v>
    <v>       0.72277620       0.60481012       0.45904817 </v>
    <v>       0.45570253       0.47012894       0.37468790 </v>
    <v>       0.40614333       0.37888556       0.44852541 </v>
    <v>       0.28443799       0.35306162       0.45202062 </v>
    <v>       0.79326502       0.53703787       0.53892527 </v>
    <v>       0.55589708       0.58769132       0.61440612 </v>
    <v>       0.42412006       0.54328620       0.27986105 </v>
    <v>       0.50894741       0.65984570       0.70400156 </v>
    <v>       0.26265982       0.50568523       0.60265428 </v>
    <v>       0.21072272       0.41813760       0.53105039 </v>
    <v>       0.60090654       0.58197914       0.45254259 </v>
    <v>       0.38544357       0.65296704       0.72941133 </v>
    <v>       0.47424490       0.54794204       0.44140236 </v>
    <v>       0.40180479       0.45306079       0.52108436 </v>
    <v>       0.53520702       0.41608490       0.59173240 </v>
    <v>       0.46544808       0.54254992       0.59041194 </v>
    <v>       0.60138410       0.50650621       0.52397638 </v>
    <v>       0.53073984       0.40562607       0.44215451 </v>
    <v>       0.50088568       0.48087016       0.51934246 </v>
   </varray>
  </structure>
  <varray name="forces" >
   <v>      -0.17323062       0.16161412      -0.51566497 </v>
   <v>       0.25846018      -0.57551789       0.79938335 </v>
   <v>       0.01298718       0.02083226       0.00972040 </v>
   <v>      -0.04397171      -0.12339942      -0.11198704 </v>
   <v>      -0.04633277      -0.05396646      -0.11599481 </v>
   <v>       0.01530731       0.06564461       0.04557464 </v>
   <v>       0.02080864      -0.00788579       0.00951617 </v>
   <v>      -0.04304088       0.02968433      -0.05169237 </v>
   <v>      -0.00568210       0.02237434      -0.01380709 </v>
   <v>      -0.00234322       0.01702600      -0.01947509 </v>
   <v>      -0.01407483       0.00384551      -0.00768058 </v>
   <v>       0.00139763       0.01856172      -0.01607731 </v>
   <v>      -0.00436920      -0.04425163       0.03888418 </v>
   <v>      -0.01467624       0.01528804      -0.00771586 </v>
   <v>      -0.00438891       0.00061736       0.00125144 </v>
   <v>      -0.03196179      -0.00140590      -0.00531558 </v>
   <v>      -0.00039332      -0.03724590      -0.00856261 </v>
   <v>       0.03185444       0.00334919      -0.00401852 </v>
   <v>      -0.01944465       0.02309929       0.02372912 </v>
   <v>       0.01087720      -0.02638855      -0.03499925 </v>
   <v>       0.03762678       0.01595117       0.02315342 </v>
   <v>      -0.01912254      -0.01746034      -0.01773060 </v>
   <v>       0.01138265       0.03597271       0.00862266 </v>
   <v>      -0.03371229      -0.01254235      -0.01842511 </v>
   <v>       0.01886553      -0.01939986      -0.01676642 </v>
   <v>      -0.00403839      -0.00133409      -0.00056306 </v>
   <v>       0.00161459      -0.00374785       0.00482538 </v>
   <v>      -0.00235169       0.00115854      -0.00031857 </v>
   <v>      -0.00849046      -0.04839600      -0.01130804 </v>
   <v>      -0.00185420       0.00536264       0.00407740 </v>
   <v>      -0.00221049      -0.01215391       0.01064750 </v>
   <v>      -0.00376091      -0.06527040      -0.02706815 </v>
   <v>      -0.00194397       0.01697313      -0.01014286 </v>
   <v>       0.00629764      -0.10460197      -0.00433078 </v>
   <v>       0.07199003      -0.04872892       0.02866974 </v>
   <v>       0.00561668       0.00222853       0.00003188 </v>
   <v>       0.00861414       0.00228955      -0.00257751 </v>
   <v>       0.00677288       1.15595851       0.16472193 </v>
   <v>       0.00674337      -0.04622683       0.00891958 </v>
   <v>      -0.00504412      -0.01105135       0.00221086 </v>
   <v>       0.00037646       0.00440852      -0.00017225 </v>
   <v>       0.01345261      -0.00194435       0.01115073 </v>
   <v>       0.02185947      -0.13530556       0.06853561 </v>
   <v>       0.00311375       0.00209635       0.00187646 </v>
   <v>      -0.00436332      -0.00439378       0.00023156 </v>
   <v>      -0.00601041      -0.00592808       0.00047447 </v>
   <v>       0.03705170       0.01134517      -0.00520809 </v>
   <v>      -0.00301832       0.00523294       0.00748577 </v>
   <v>      -0.05292129      -0.43627646      -0.11169276 </v>
   <v>      -0.17141095      -0.06426347       0.01490038 </v>
   <v>      -0.00318544      -0.01046942       0.05714358 </v>
   <v>      -0.03087622       0.11512715       0.10330401 </v>
   <v>       0.11950880      -0.00808224       0.03016787 </v>
   <v>      -0.03922661       0.10849934      -0.07081130 </v>
   <v>       0.07487220       0.06309778      -0.26910349 </v>
  </varray>
  <varray name="stress" >
   <v>      -2.52950420       0.09913460      -0.15422388 </v>
   <v>       0.09913459      -3.13080182       0.07747763 </v>
   <v>      -0.15422391       0.07747763      -2.98978074 </v>
  </varray>
  <energy>
   <i name="e_fr_energy">   -377.09473751 </i>
   <i name="e_wo_entrp">   -377.09473751 </i>
   <i name="e_0_energy">     -0.00000000 </i>
  </energy>
  <time name="totalsc"> 1032.60 1073.94</time>
  <eigenvalues>
   <array>
    <dimension dim="1">band</dimension>
    <dimension dim="2">kpoint</dimension>
    <dimension dim="3">spin</dimension>
    <field>eigene</field>
    <field>occ</field>
    <set>
     <set comment="spin 1">
      <set comment="kpoint 1">
       <r>  -49.0555    1.0000 </r>
       <r>  -48.9414    1.0000 </r>
       <r>  -48.6945    1.0000 </r>
       <r>  -29.2974    1.0000 </r>
       <r>  -27.7467    1.0000 </r>
       <r>  -26.9193    1.0000 </r>
       <r>  -26.7786    1.0000 </r>
       <r>  -26.1788    1.0000 </r>
       <r>  -26.1215    1.0000 </r>
       <r>  -23.2683    1.0000 </r>
       <r>  -22.7431    1.0000 </r>
       <r>  -22.4643    1.0000 </r>
       <r>  -22.3982    1.0000 </r>
       <r>  -22.3406    1.0000 </r>
       <r>  -22.2933    1.0000 </r>
       <r>  -22.2195    1.0000 </r>
       <r>  -22.1843    1.0000 </r>
       <r>  -20.8176    1.0000 </r>
       <r>  -20.7809    1.0000 </r>
       <r>  -19.2062    1.0000 </r>
       <r>  -19.0199    1.0000 </r>
       <r>  -18.7497    1.0000 </r>
       <r>  -18.6990    1.0000 </r>
       <r>  -18.4680    1.0000 </r>
       <r>  -18.4321    1.0000 </r>
       <r>  -17.6357    1.0000 </r>
       <r>  -17.5964    1.0000 </r>
       <r>  -17.3240    1.0000 </r>
       <r>  -17.2864    1.0000 </r>
       <r>  -17.0018    1.0000 </r>
       <r>  -16.6328    1.0000 </r>
       <r>  -15.9387    1.0000 </r>
       <r>  -15.7454    1.0000 </r>
       <r>  -15.4517    1.0000 </r>
       <r>  -14.7853    1.0000 </r>
       <r>  -14.7499    1.0000 </r>
       <r>  -14.7319    1.0000 </r>
       <r>  -14.6730    1.0000 </r>
       <r>  -14.5794    1.0000 </r>
       <r>  -14.1557    1.0000 </r>
       <r>  -14.0358    1.0000 </r>
       <r>  -13.9776    1.0000 </r>
       <r>  -13.9031    1.0000 </r>
       <r>  -13.8252    1.0000 </r>
       <r>  -13.7826    1.0000 </r>
       <r>  -13.7498    1.0000 </r>
       <r>  -13.4639    1.0000 </r>
       <r>  -13.3885    1.0000 </r>
       <r>  -13.1986    1.0000 </r>
       <r>  -13.1476    1.0000 </r>
       <r>  -13.0169    1.0000 </r>
       <r>  -12.9048    1.0000 </r>
       <r>  -12.7942    1.0000 </r>
       <r>  -12.7728    1.0000 </r>
       <r>  -12.5700    1.0000 </r>
       <r>  -12.4118    1.0000 </r>
       <r>  -12.3749    1.0000 </r>
       <r>  -12.1957    1.0000 </r>
       <r>  -12.1417    1.0000 </r>
       <r>  -11.8723    1.0000 </r>
       <r>  -11.5599    1.0000 </r>
       <r>  -11.3393    1.0000 </r>
       <r>  -11.2584    1.0000 </r>
       <r>  -11.1121    1.0000 </r>
       <r>  -11.1079    1.0000 </r>
       <r>  -11.0822    1.0000 </r>
       <r>  -10.7315    1.0000 </r>
       <r>  -10.5364    1.0000 </r>
       <r>  -10.4420    1.0000 </r>
       <r>  -10.2082    1.0000 </r>
       <r>  -10.1711    1.0000 </r>
       <r>   -9.9367    1.0000 </r>
       <r>   -9.8444    1.0000 </r>
       <r>   -9.8277    1.0000 </r>
       <r>   -9.7678    1.0000 </r>
       <r>   -9.7421    1.0000 </r>
       <r>   -9.7021    1.0000 </r>
       <r>   -9.5135    1.0000 </r>
       <r>   -8.4128    1.0000 </r>
       <r>   -8.3655    1.0000 </r>
       <r>   -7.4245    1.0000 </r>
       <r>   -7.2473    1.0000 </r>
       <r>   -7.1128    1.0000 </r>
       <r>   -5.4186    0.0000 </r>
       <r>   -5.0159    0.0000 </r>
       <r>   -4.9391    0.0000 </r>
       <r>   -4.7428    0.0000 </r>
       <r>   -4.2697    0.0000 </r>
       <r>   -4.0946    0.0000 </r>
       <r>   -3.9987    0.0000 </r>
       <r>   -3.9467    0.0000 </r>
       <r>   -3.8284    0.0000 </r>
       <r>   -3.2004    0.0000 </r>
       <r>   -2.9537    0.0000 </r>
       <r>   -2.7878    0.0000 </r>
       <r>   -2.6913    0.0000 </r>
       <r>   -1.8876    0.0000 </r>
       <r>   -1.6767    0.0000 </r>
       <r>   -1.6667    0.0000 </r>
       <r>   -1.4058    0.0000 </r>
       <r>   -1.2118    0.0000 </r>
       <r>   -1.1533    0.0000 </r>
       <r>   -1.0558    0.0000 </r>
       <r>   -0.9345    0.0000 </r>
       <r>   -0.8911    0.0000 </r>
       <r>   -0.8172    0.0000 </r>
       <r>   -0.7465    0.0000 </r>
       <r>   -0.6760    0.0000 </r>
       <r>   -0.5824    0.0000 </r>
       <r>   -0.4608    0.0000 </r>
       <r>   -0.4134    0.0000 </r>
       <r>   -0.3777    0.0000 </r>
       <r>   -0.2989    0.0000 </r>
       <r>   -0.2045    0.0000 </r>
       <r>   -0.1386    0.0000 </r>
       <r>   -0.0847    0.0000 </r>
       <r>   -0.0136    0.0000 </r>
       <r>    0.0989    0.0000 </r>
       <r>    0.2013    0.0000 </r>
       <r>    0.2995    0.0000 </r>
       <r>    0.3322    0.0000 </r>
       <r>    0.4534    0.0000 </r>
       <r>    0.4692    0.0000 </r>
       <r>    0.5833    0.0000 </r>
       <r>    0.5946    0.0000 </r>
       <r>    0.6467    0.0000 </r>
       <r>    0.6850    0.0000 </r>
       <r>    0.7220    0.0000 </r>
      </set>
     </set>
     <set comment="spin 2">
      <set comment="kpoint 1">
       <r>  -49.0555    1.0000 </r>
       <r>  -48.9414    1.0000 </r>
       <r>  -48.6945    1.0000 </r>
       <r>  -29.2974    1.0000 </r>
       <r>  -27.7467    1.0000 </r>
       <r>  -26.9193    1.0000 </r>
       <r>  -26.7786    1.0000 </r>
       <r>  -26.1788    1.0000 </r>
       <r>  -26.1215    1.0000 </r>
       <r>  -23.2683    1.0000 </r>
       <r>  -22.7431    1.0000 </r>
       <r>  -22.4643    1.0000 </r>
       <r>  -22.3982    1.0000 </r>
       <r>  -22.3406    1.0000 </r>
       <r>  -22.2933    1.0000 </r>
       <r>  -22.2195    1.0000 </r>
       <r>  -22.1843    1.0000 </r>
       <r>  -20.8176    1.0000 </r>
       <r>  -20.7809    1.0000 </r>
       <r>  -19.2062    1.0000 </r>
       <r>  -19.0199    1.0000 </r>
       <r>  -18.7497    1.0000 </r>
       <r>  -18.6990    1.0000 </r>
       <r>  -18.4680    1.0000 </r>
       <r>  -18.4321    1.0000 </r>
       <r>  -17.6357    1.0000 </r>
       <r>  -17.5964    1.0000 </r>
       <r>  -17.3240    1.0000 </r>
       <r>  -17.2864    1.0000 </r>
       <r>  -17.0018    1.0000 </r>
       <r>  -16.6328    1.0000 </r>
       <r>  -15.9387    1.0000 </r>
       <r>  -15.7454    1.0000 </r>
       <r>  -15.4517    1.0000 </r>
       <r>  -14.7853    1.0000 </r>
       <r>  -14.7499    1.0000 </r>
       <r>  -14.7319    1.0000 </r>
       <r>  -14.6730    1.0000 </r>
       <r>  -14.5794    1.0000 </r>
       <r>  -14.1557    1.0000 </r>
       <r>  -14.0358    1.0000 </r>
       <r>  -13.9776    1.0000 </r>
       <r>  -13.9031    1.0000 </r>
       <r>  -13.8252    1.0000 </r>
       <r>  -13.7826    1.0000 </r>
       <r>  -13.7498    1.0000 </r>
       <r>  -13.4639    1.0000 </r>
       <r>  -13.3885    1.0000 </r>
       <r>  -13.1986    1.0000 </r>
       <r>  -13.1476    1.0000 </r>
       <r>  -13.0169    1.0000 </r>
       <r>  -12.9048    1.0000 </r>
       <r>  -12.7942    1.0000 </r>
       <r>  -12.7728    1.0000 </r>
       <r>  -12.5700    1.0000 </r>
       <r>  -12.4118    1.0000 </r>
       <r>  -12.3749    1.0000 </r>
       <r>  -12.1957    1.0000 </r>
       <r>  -12.1417    1.0000 </r>
       <r>  -11.8723    1.0000 </r>
       <r>  -11.5599    1.0000 </r>
       <r>  -11.3393    1.0000 </r>
       <r>  -11.2584    1.0000 </r>
       <r>  -11.1121    1.0000 </r>
       <r>  -11.1079    1.0000 </r>
       <r>  -11.0822    1.0000 </r>
       <r>  -10.7315    1.0000 </r>
       <r>  -10.5364    1.0000 </r>
       <r>  -10.4420    1.0000 </r>
       <r>  -10.2082    1.0000 </r>
       <r>  -10.1711    1.0000 </r>
       <r>   -9.9367    1.0000 </r>
       <r>   -9.8444    1.0000 </r>
       <r>   -9.8277    1.0000 </r>
       <r>   -9.7678    1.0000 </r>
       <r>   -9.7421    1.0000 </r>
       <r>   -9.7021    1.0000 </r>
       <r>   -9.5135    1.0000 </r>
       <r>   -8.4128    1.0000 </r>
       <r>   -8.3655    1.0000 </r>
       <r>   -7.4245    1.0000 </r>
       <r>   -7.2473    1.0000 </r>
       <r>   -7.1128    1.0000 </r>
       <r>   -5.4186    0.0000 </r>
       <r>   -5.0159    0.0000 </r>
       <r>   -4.9391    0.0000 </r>
       <r>   -4.7428    0.0000 </r>
       <r>   -4.2697    0.0000 </r>
       <r>   -4.0946    0.0000 </r>
       <r>   -3.9987    0.0000 </r>
       <r>   -3.9467    0.0000 </r>
       <r>   -3.8284    0.0000 </r>
       <r>   -3.2004    0.0000 </r>
       <r>   -2.9537    0.0000 </r>
       <r>   -2.7878    0.0000 </r>
       <r>   -2.6913    0.0000 </r>
       <r>   -1.8876    0.0000 </r>
       <r>   -1.6767    0.0000 </r>
       <r>   -1.6667    0.0000 </r>
       <r>   -1.4058    0.0000 </r>
       <r>   -1.2118    0.0000 </r>
       <r>   -1.1533    0.0000 </r>
       <r>   -1.0558    0.0000 </r>
       <r>   -0.9345    0.0000 </r>
       <r>   -0.8911    0.0000 </r>
       <r>   -0.8172    0.0000 </r>
       <r>   -0.7465    0.0000 </r>
       <r>   -0.6760    0.0000 </r>
       <r>   -0.5824    0.0000 </r>
       <r>   -0.4608    0.0000 </r>
       <r>   -0.4134    0.0000 </r>
       <r>   -0.3777    0.0000 </r>
       <r>   -0.2989    0.0000 </r>
       <r>   -0.2045    0.0000 </r>
       <r>   -0.1386    0.0000 </r>
       <r>   -0.0847    0.0000 </r>
       <r>   -0.0136    0.0000 </r>
       <r>    0.0990    0.0000 </r>
       <r>    0.2013    0.0000 </r>
       <r>    0.2995    0.0000 </r>
       <r>    0.3322    0.0000 </r>
       <r>    0.4534    0.0000 </r>
       <r>    0.4692    0.0000 </r>
       <r>    0.5833    0.0000 </r>
       <r>    0.5946    0.0000 </r>
       <r>    0.6467    0.0000 </r>
       <r>    0.6849    0.0000 </r>
       <r>    0.7213    0.0000 </r>
      </set>
     </set>
    </set>
   </array>
  </eigenvalues>
  <separator name="orbital magnetization" >
   <v name="MAGDIPOLOUT">      0.00000000      0.00000000      0.00000000</v>
  </separator>
  <dos>
   <i name="efermi">     -6.96443934 </i>
   <total>
    <array>
     <dimension dim="1">gridpoints</dimension>
     <dimension dim="2">spin</dimension>
     <field>energy</field>
     <field>total</field>
     <field>integrated</field>
     <set>
      <set comment="spin 1">
       <r>   -51.5444     0.0000     0.0000 </r>
       <r>   -51.3618     0.0000     0.0000 </r>
       <r>   -51.1793     0.0000     0.0000 </r>
       <r>   -50.9968     0.0000     0.0000 </r>
       <r>   -50.8143     0.0000     0.0000 </r>
       <r>   -50.6318     0.0000     0.0000 </r>
       <r>   -50.4492     0.0000     0.0000 </r>
       <r>   -50.2667     0.0000     0.0000 </r>
       <r>   -50.0842     0.0000     0.0000 </r>
       <r>   -49.9017     0.0000     0.0000 </r>
       <r>   -49.7192     0.0000     0.0000 </r>
       <r>   -49.5367     0.0000     0.0000 </r>
       <r>   -49.3541     0.0000     0.0000 </r>
       <r>   -49.1716     0.0000     0.0000 </r>
       <r>   -48.9891    10.9578     2.0000 </r>
       <r>   -48.8066     0.0000     4.0000 </r>
       <r>   -48.6241    10.9578     6.0000 </r>
       <r>   -48.4416     0.0000     6.0000 </r>
       <r>   -48.2590     0.0000     6.0000 </r>
       <r>   -48.0765     0.0000     6.0000 </r>
       <r>   -47.8940     0.0000     6.0000 </r>
       <r>   -47.7115     0.0000     6.0000 </r>
       <r>   -47.5290     0.0000     6.0000 </r>
       <r>   -47.3464     0.0000     6.0000 </r>
       <r>   -47.1639     0.0000     6.0000 </r>
       <r>   -46.9814     0.0000     6.0000 </r>
       <r>   -46.7989     0.0000     6.0000 </r>
       <r>   -46.6164     0.0000     6.0000 </r>
       <r>   -46.4339     0.0000     6.0000 </r>
       <r>   -46.2513     0.0000     6.0000 </r>
       <r>   -46.0688     0.0000     6.0000 </r>
       <r>   -45.8863     0.0000     6.0000 </r>
       <r>   -45.7038     0.0000     6.0000 </r>
       <r>   -45.5213     0.0000     6.0000 </r>
       <r>   -45.3388     0.0000     6.0000 </r>
       <r>   -45.1562     0.0000     6.0000 </r>
       <r>   -44.9737     0.0000     6.0000 </r>
       <r>   -44.7912     0.0000     6.0000 </r>
       <r>   -44.6087     0.0000     6.0000 </r>
       <r>   -44.4262     0.0000     6.0000 </r>
       <r>   -44.2437     0.0000     6.0000 </r>
       <r>   -44.0611     0.0000     6.0000 </r>
       <r>   -43.8786     0.0000     6.0000 </r>
       <r>   -43.6961     0.0000     6.0000 </r>
       <r>   -43.5136     0.0000     6.0000 </r>
       <r>   -43.3311     0.0000     6.0000 </r>
       <r>   -43.1485     0.0000     6.0000 </r>
       <r>   -42.9660     0.0000     6.0000 </r>
       <r>   -42.7835     0.0000     6.0000 </r>
       <r>   -42.6010     0.0000     6.0000 </r>
       <r>   -42.4185     0.0000     6.0000 </r>
       <r>   -42.2360     0.0000     6.0000 </r>
       <r>   -42.0534     0.0000     6.0000 </r>
       <r>   -41.8709     0.0000     6.0000 </r>
       <r>   -41.6884     0.0000     6.0000 </r>
       <r>   -41.5059     0.0000     6.0000 </r>
       <r>   -41.3234     0.0000     6.0000 </r>
       <r>   -41.1409     0.0000     6.0000 </r>
       <r>   -40.9583     0.0000     6.0000 </r>
       <r>   -40.7758     0.0000     6.0000 </r>
       <r>   -40.5933     0.0000     6.0000 </r>
       <r>   -40.4108     0.0000     6.0000 </r>
       <r>   -40.2283     0.0000     6.0000 </r>
       <r>   -40.0457     0.0000     6.0000 </r>
       <r>   -39.8632     0.0000     6.0000 </r>
       <r>   -39.6807     0.0000     6.0000 </r>
       <r>   -39.4982     0.0000     6.0000 </r>
       <r>   -39.3157     0.0000     6.0000 </r>
       <r>   -39.1332     0.0000     6.0000 </r>
       <r>   -38.9506     0.0000     6.0000 </r>
       <r>   -38.7681     0.0000     6.0000 </r>
       <r>   -38.5856     0.0000     6.0000 </r>
       <r>   -38.4031     0.0000     6.0000 </r>
       <r>   -38.2206     0.0000     6.0000 </r>
       <r>   -38.0381     0.0000     6.0000 </r>
       <r>   -37.8555     0.0000     6.0000 </r>
       <r>   -37.6730     0.0000     6.0000 </r>
       <r>   -37.4905     0.0000     6.0000 </r>
       <r>   -37.3080     0.0000     6.0000 </r>
       <r>   -37.1255     0.0000     6.0000 </r>
       <r>   -36.9429     0.0000     6.0000 </r>
       <r>   -36.7604     0.0000     6.0000 </r>
       <r>   -36.5779     0.0000     6.0000 </r>
       <r>   -36.3954     0.0000     6.0000 </r>
       <r>   -36.2129     0.0000     6.0000 </r>
       <r>   -36.0304     0.0000     6.0000 </r>
       <r>   -35.8478     0.0000     6.0000 </r>
       <r>   -35.6653     0.0000     6.0000 </r>
       <r>   -35.4828     0.0000     6.0000 </r>
       <r>   -35.3003     0.0000     6.0000 </r>
       <r>   -35.1178     0.0000     6.0000 </r>
       <r>   -34.9353     0.0000     6.0000 </r>
       <r>   -34.7527     0.0000     6.0000 </r>
       <r>   -34.5702     0.0000     6.0000 </r>
       <r>   -34.3877     0.0000     6.0000 </r>
       <r>   -34.2052     0.0000     6.0000 </r>
       <r>   -34.0227     0.0000     6.0000 </r>
       <r>   -33.8402     0.0000     6.0000 </r>
       <r>   -33.6576     0.0000     6.0000 </r>
       <r>   -33.4751     0.0000     6.0000 </r>
       <r>   -33.2926     0.0000     6.0000 </r>
       <r>   -33.1101     0.0000     6.0000 </r>
       <r>   -32.9276     0.0000     6.0000 </r>
       <r>   -32.7450     0.0000     6.0000 </r>
       <r>   -32.5625     0.0000     6.0000 </r>
       <r>   -32.3800     0.0000     6.0000 </r>
       <r>   -32.1975     0.0000     6.0000 </r>
       <r>   -32.0150     0.0000     6.0000 </r>
       <r>   -31.8325     0.0000     6.0000 </r>
       <r>   -31.6499     0.0000     6.0000 </r>
       <r>   -31.4674     0.0000     6.0000 </r>
       <r>   -31.2849     0.0000     6.0000 </r>
       <r>   -31.1024     0.0000     6.0000 </r>
       <r>   -30.9199     0.0000     6.0000 </r>
       <r>   -30.7374     0.0000     6.0000 </r>
       <r>   -30.5548     0.0000     6.0000 </r>
       <r>   -30.3723     0.0000     6.0000 </r>
       <r>   -30.1898     0.0000     6.0000 </r>
       <r>   -30.0073     0.0000     6.0000 </r>
       <r>   -29.8248     0.0000     6.0000 </r>
       <r>   -29.6422     0.0000     6.0000 </r>
       <r>   -29.4597     0.0000     6.0000 </r>
       <r>   -29.2772    10.9347     7.9958 </r>
       <r>   -29.0947     0.0000     8.0000 </r>
       <r>   -28.9122     0.0000     8.0000 </r>
       <r>   -28.7297     0.0000     8.0000 </r>
       <r>   -28.5471     0.0000     8.0000 </r>
       <r>   -28.3646     0.0000     8.0000 </r>
       <r>   -28.1821     0.0000     8.0000 </r>
       <r>   -27.9996     0.0000     8.0000 </r>
       <r>   -27.8171     0.0000     8.0000 </r>
       <r>   -27.6346     0.0000    10.0000 </r>
       <r>   -27.4520     0.0000    10.0000 </r>
       <r>   -27.2695     0.0000    10.0000 </r>
       <r>   -27.0870     0.0000    10.0000 </r>
       <r>   -26.9045    10.7613    11.9641 </r>
       <r>   -26.7220    10.9578    14.0000 </r>
       <r>   -26.5394     0.0000    14.0000 </r>
       <r>   -26.3569     0.0000    14.0000 </r>
       <r>   -26.1744     8.0477    15.4688 </r>
       <r>   -25.9919     0.0000    18.0000 </r>
       <r>   -25.8094     0.0000    18.0000 </r>
       <r>   -25.6269     0.0000    18.0000 </r>
       <r>   -25.4443     0.0000    18.0000 </r>
       <r>   -25.2618     0.0000    18.0000 </r>
       <r>   -25.0793     0.0000    18.0000 </r>
       <r>   -24.8968     0.0000    18.0000 </r>
       <r>   -24.7143     0.0000    18.0000 </r>
       <r>   -24.5318     0.0000    18.0000 </r>
       <r>   -24.3492     0.0000    18.0000 </r>
       <r>   -24.1667     0.0000    18.0000 </r>
       <r>   -23.9842     0.0000    18.0000 </r>
       <r>   -23.8017     0.0000    18.0000 </r>
       <r>   -23.6192     0.0000    18.0000 </r>
       <r>   -23.4366     0.0000    18.0000 </r>
       <r>   -23.2541    10.7124    19.9552 </r>
       <r>   -23.0716     0.0000    20.0000 </r>
       <r>   -22.8891     0.0000    20.0000 </r>
       <r>   -22.7066    10.9578    22.0000 </r>
       <r>   -22.5241     0.0000    22.0000 </r>
       <r>   -22.3415    15.8675    26.8961 </r>
       <r>   -22.1590    21.9138    33.9997 </r>
       <r>   -21.9765     0.0000    34.0000 </r>
       <r>   -21.7940     0.0000    34.0000 </r>
       <r>   -21.6115     0.0000    34.0000 </r>
       <r>   -21.4290     0.0000    34.0000 </r>
       <r>   -21.2464     0.0000    34.0000 </r>
       <r>   -21.0639     0.0000    34.0000 </r>
       <r>   -20.8814     0.0000    34.0000 </r>
       <r>   -20.6989     0.0000    38.0000 </r>
       <r>   -20.5164     0.0000    38.0000 </r>
       <r>   -20.3339     0.0000    38.0000 </r>
       <r>   -20.1513     0.0000    38.0000 </r>
       <r>   -19.9688     0.0000    38.0000 </r>
       <r>   -19.7863     0.0000    38.0000 </r>
       <r>   -19.6038     0.0000    38.0000 </r>
       <r>   -19.4213     0.0000    38.0000 </r>
       <r>   -19.2387     0.0000    38.0000 </r>
       <r>   -19.0562     0.0000    40.0000 </r>
       <r>   -18.8737     0.0000    42.0000 </r>
       <r>   -18.6912    20.4382    45.7303 </r>
       <r>   -18.5087     0.0000    46.0000 </r>
       <r>   -18.3262     0.0000    50.0000 </r>
       <r>   -18.1436     0.0000    50.0000 </r>
       <r>   -17.9611     0.0000    50.0000 </r>
       <r>   -17.7786     0.0000    50.0000 </r>
       <r>   -17.5961    16.6302    53.0353 </r>
       <r>   -17.4136     0.0000    54.0000 </r>
       <r>   -17.2311    10.9578    58.0000 </r>
       <r>   -17.0485     0.0000    58.0000 </r>
       <r>   -16.8660     0.0000    60.0000 </r>
       <r>   -16.6835     0.0000    60.0000 </r>
       <r>   -16.5010     0.0000    62.0000 </r>
       <r>   -16.3185     0.0000    62.0000 </r>
       <r>   -16.1359     0.0000    62.0000 </r>
       <r>   -15.9534     0.2053    62.0375 </r>
       <r>   -15.7709     0.0017    64.0003 </r>
       <r>   -15.5884     0.0000    66.0000 </r>
       <r>   -15.4059    10.9578    68.0000 </r>
       <r>   -15.2234     0.0000    68.0000 </r>
       <r>   -15.0408     0.0000    68.0000 </r>
       <r>   -14.8583     0.0000    68.0000 </r>
       <r>   -14.6758    25.7077    74.6921 </r>
       <r>   -14.4933     0.0000    78.0000 </r>
       <r>   -14.3108     0.0000    78.0000 </r>
       <r>   -14.1283    10.9573    79.9999 </r>
       <r>   -13.9457    10.9578    84.0000 </r>
       <r>   -13.7632    22.1939    90.0508 </r>
       <r>   -13.5807     0.0000    92.0000 </r>
       <r>   -13.3982    11.8830    94.1689 </r>
       <r>   -13.2157     0.0857    96.0156 </r>
       <r>   -13.0331     0.1201   100.0219 </r>
       <r>   -12.8506    10.9578   104.0000 </r>
       <r>   -12.6681     0.0000   108.0000 </r>
       <r>   -12.4856     0.0000   110.0000 </r>
       <r>   -12.3031    10.9578   114.0000 </r>
       <r>   -12.1206    21.9004   117.9972 </r>
       <r>   -11.9380     0.0000   118.0000 </r>
       <r>   -11.7555     0.0000   120.0000 </r>
       <r>   -11.5730     0.3514   120.0641 </r>
       <r>   -11.3905     0.0000   122.0000 </r>
       <r>   -11.2080    10.9578   126.0000 </r>
       <r>   -11.0255    10.9578   132.0000 </r>
       <r>   -10.8429     0.0000   132.0000 </r>
       <r>   -10.6604    10.9578   134.0000 </r>
       <r>   -10.4779    10.9579   136.0000 </r>
       <r>   -10.2954     0.0000   138.0000 </r>
       <r>   -10.1129    10.9578   142.0000 </r>
       <r>    -9.9303     8.9367   143.6311 </r>
       <r>    -9.7478    24.1985   150.4166 </r>
       <r>    -9.5653     0.0000   154.0000 </r>
       <r>    -9.3828     0.0000   156.0000 </r>
       <r>    -9.2003     0.0000   156.0000 </r>
       <r>    -9.0178     0.0000   156.0000 </r>
       <r>    -8.8352     0.0000   156.0000 </r>
       <r>    -8.6527     0.0000   156.0000 </r>
       <r>    -8.4702     0.0000   156.0000 </r>
       <r>    -8.2877    10.9578   160.0000 </r>
       <r>    -8.1052     0.0000   160.0000 </r>
       <r>    -7.9227     0.0000   160.0000 </r>
       <r>    -7.7401     0.0000   160.0000 </r>
       <r>    -7.5576     0.0000   160.0000 </r>
       <r>    -7.3751    10.9578   162.0000 </r>
       <r>    -7.1926    10.9578   164.0000 </r>
       <r>    -7.0101     0.0000   166.0000 </r>
       <r>    -6.8276     0.0000   166.0000 </r>
       <r>    -6.6450     0.0000   166.0000 </r>
       <r>    -6.4625     0.0000   166.0000 </r>
       <r>    -6.2800     0.0000   166.0000 </r>
       <r>    -6.0975     0.0000   166.0000 </r>
       <r>    -5.9150     0.0000   166.0000 </r>
       <r>    -5.7324     0.0000   166.0000 </r>
       <r>    -5.5499     0.0000   166.0000 </r>
       <r>    -5.3674    10.9578   168.0000 </r>
       <r>    -5.1849     0.0000   168.0000 </r>
       <r>    -5.0024    10.6474   169.9433 </r>
       <r>    -4.8199     0.0000   172.0000 </r>
       <r>    -4.6373     0.0000   174.0000 </r>
       <r>    -4.4548     0.0000   174.0000 </r>
       <r>    -4.2723     3.8767   174.7076 </r>
       <r>    -4.0898     8.2426   177.5044 </r>
       <r>    -3.9073    10.9578   182.0000 </r>
       <r>    -3.7248     0.0000   184.0000 </r>
       <r>    -3.5422     0.0000   184.0000 </r>
       <r>    -3.3597     0.0000   184.0000 </r>
       <r>    -3.1772    10.9523   185.9990 </r>
       <r>    -2.9947     0.0000   186.0000 </r>
       <r>    -2.8122     0.0031   188.0006 </r>
       <r>    -2.6296    10.9578   192.0000 </r>
       <r>    -2.4471     0.0000   192.0000 </r>
       <r>    -2.2646     0.0000   192.0000 </r>
       <r>    -2.0821     0.0000   192.0000 </r>
       <r>    -1.8996     0.4999   192.0912 </r>
       <r>    -1.7171     0.0000   194.0000 </r>
       <r>    -1.5345     0.0000   198.0000 </r>
       <r>    -1.3520    10.9578   200.0000 </r>
       <r>    -1.1695    11.0780   202.0219 </r>
       <r>    -0.9870    10.9578   206.0000 </r>
       <r>    -0.8045    10.5630   211.9279 </r>
       <r>    -0.6220    10.9578   216.0000 </r>
       <r>    -0.4394    10.9455   219.9978 </r>
       <r>    -0.2569    10.9578   226.0000 </r>
       <r>    -0.0744    21.1190   231.8546 </r>
       <r>     0.1081     9.8910   235.8053 </r>
       <r>     0.2906     1.1537   238.2106 </r>
       <r>     0.4732    18.7181   245.4164 </r>
       <r>     0.6557    31.7601   251.7968 </r>
       <r>     0.8382     0.0000   256.0000 </r>
       <r>     1.0207     0.0000   256.0000 </r>
       <r>     1.2032     0.0000   256.0000 </r>
       <r>     1.3857     0.0000   256.0000 </r>
       <r>     1.5683     0.0000   256.0000 </r>
       <r>     1.7508     0.0000   256.0000 </r>
       <r>     1.9333     0.0000   256.0000 </r>
       <r>     2.1158     0.0000   256.0000 </r>
       <r>     2.2983     0.0000   256.0000 </r>
       <r>     2.4808     0.0000   256.0000 </r>
       <r>     2.6634     0.0000   256.0000 </r>
       <r>     2.8459     0.0000   256.0000 </r>
       <r>     3.0284     0.0000   256.0000 </r>
       <r>     3.2109     0.0000   256.0000 </r>
      </set>
      <set comment="spin 2">
       <r>   -51.5444     0.0000     0.0000 </r>
       <r>   -51.3618     0.0000     0.0000 </r>
       <r>   -51.1793     0.0000     0.0000 </r>
       <r>   -50.9968     0.0000     0.0000 </r>
       <r>   -50.8143     0.0000     0.0000 </r>
       <r>   -50.6318     0.0000     0.0000 </r>
       <r>   -50.4492     0.0000     0.0000 </r>
       <r>   -50.2667     0.0000     0.0000 </r>
       <r>   -50.0842     0.0000     0.0000 </r>
       <r>   -49.9017     0.0000     0.0000 </r>
       <r>   -49.7192     0.0000     0.0000 </r>
       <r>   -49.5367     0.0000     0.0000 </r>
       <r>   -49.3541     0.0000     0.0000 </r>
       <r>   -49.1716     0.0000     0.0000 </r>
       <r>   -48.9891    10.9578     2.0000 </r>
       <r>   -48.8066     0.0000     4.0000 </r>
       <r>   -48.6241    10.9578     6.0000 </r>
       <r>   -48.4416     0.0000     6.0000 </r>
       <r>   -48.2590     0.0000     6.0000 </r>
       <r>   -48.0765     0.0000     6.0000 </r>
       <r>   -47.8940     0.0000     6.0000 </r>
       <r>   -47.7115     0.0000     6.0000 </r>
       <r>   -47.5290     0.0000     6.0000 </r>
       <r>   -47.3464     0.0000     6.0000 </r>
       <r>   -47.1639     0.0000     6.0000 </r>
       <r>   -46.9814     0.0000     6.0000 </r>
       <r>   -46.7989     0.0000     6.0000 </r>
       <r>   -46.6164     0.0000     6.0000 </r>
       <r>   -46.4339     0.0000     6.0000 </r>
       <r>   -46.2513     0.0000     6.0000 </r>
       <r>   -46.0688     0.0000     6.0000 </r>
       <r>   -45.8863     0.0000     6.0000 </r>
       <r>   -45.7038     0.0000     6.0000 </r>
       <r>   -45.5213     0.0000     6.0000 </r>
       <r>   -45.3388     0.0000     6.0000 </r>
       <r>   -45.1562     0.0000     6.0000 </r>
       <r>   -44.9737     0.0000     6.0000 </r>
       <r>   -44.7912     0.0000     6.0000 </r>
       <r>   -44.6087     0.0000     6.0000 </r>
       <r>   -44.4262     0.0000     6.0000 </r>
       <r>   -44.2437     0.0000     6.0000 </r>
       <r>   -44.0611     0.0000     6.0000 </r>
       <r>   -43.8786     0.0000     6.0000 </r>
       <r>   -43.6961     0.0000     6.0000 </r>
       <r>   -43.5136     0.0000     6.0000 </r>
       <r>   -43.3311     0.0000     6.0000 </r>
       <r>   -43.1485     0.0000     6.0000 </r>
       <r>   -42.9660     0.0000     6.0000 </r>
       <r>   -42.7835     0.0000     6.0000 </r>
       <r>   -42.6010     0.0000     6.0000 </r>
       <r>   -42.4185     0.0000     6.0000 </r>
       <r>   -42.2360     0.0000     6.0000 </r>
       <r>   -42.0534     0.0000     6.0000 </r>
       <r>   -41.8709     0.0000     6.0000 </r>
       <r>   -41.6884     0.0000     6.0000 </r>
       <r>   -41.5059     0.0000     6.0000 </r>
       <r>   -41.3234     0.0000     6.0000 </r>
       <r>   -41.1409     0.0000     6.0000 </r>
       <r>   -40.9583     0.0000     6.0000 </r>
       <r>   -40.7758     0.0000     6.0000 </r>
       <r>   -40.5933     0.0000     6.0000 </r>
       <r>   -40.4108     0.0000     6.0000 </r>
       <r>   -40.2283     0.0000     6.0000 </r>
       <r>   -40.0457     0.0000     6.0000 </r>
       <r>   -39.8632     0.0000     6.0000 </r>
       <r>   -39.6807     0.0000     6.0000 </r>
       <r>   -39.4982     0.0000     6.0000 </r>
       <r>   -39.3157     0.0000     6.0000 </r>
       <r>   -39.1332     0.0000     6.0000 </r>
       <r>   -38.9506     0.0000     6.0000 </r>
       <r>   -38.7681     0.0000     6.0000 </r>
       <r>   -38.5856     0.0000     6.0000 </r>
       <r>   -38.4031     0.0000     6.0000 </r>
       <r>   -38.2206     0.0000     6.0000 </r>
       <r>   -38.0381     0.0000     6.0000 </r>
       <r>   -37.8555     0.0000     6.0000 </r>
       <r>   -37.6730     0.0000     6.0000 </r>
       <r>   -37.4905     0.0000     6.0000 </r>
       <r>   -37.3080     0.0000     6.0000 </r>
       <r>   -37.1255     0.0000     6.0000 </r>
       <r>   -36.9429     0.0000     6.0000 </r>
       <r>   -36.7604     0.0000     6.0000 </r>
       <r>   -36.5779     0.0000     6.0000 </r>
       <r>   -36.3954     0.0000     6.0000 </r>
       <r>   -36.2129     0.0000     6.0000 </r>
       <r>   -36.0304     0.0000     6.0000 </r>
       <r>   -35.8478     0.0000     6.0000 </r>
       <r>   -35.6653     0.0000     6.0000 </r>
       <r>   -35.4828     0.0000     6.0000 </r>
       <r>   -35.3003     0.0000     6.0000 </r>
       <r>   -35.1178     0.0000     6.0000 </r>
       <r>   -34.9353     0.0000     6.0000 </r>
       <r>   -34.7527     0.0000     6.0000 </r>
       <r>   -34.5702     0.0000     6.0000 </r>
       <r>   -34.3877     0.0000     6.0000 </r>
       <r>   -34.2052     0.0000     6.0000 </r>
       <r>   -34.0227     0.0000     6.0000 </r>
       <r>   -33.8402     0.0000     6.0000 </r>
       <r>   -33.6576     0.0000     6.0000 </r>
       <r>   -33.4751     0.0000     6.0000 </r>
       <r>   -33.2926     0.0000     6.0000 </r>
       <r>   -33.1101     0.0000     6.0000 </r>
       <r>   -32.9276     0.0000     6.0000 </r>
       <r>   -32.7450     0.0000     6.0000 </r>
       <r>   -32.5625     0.0000     6.0000 </r>
       <r>   -32.3800     0.0000     6.0000 </r>
       <r>   -32.1975     0.0000     6.0000 </r>
       <r>   -32.0150     0.0000     6.0000 </r>
       <r>   -31.8325     0.0000     6.0000 </r>
       <r>   -31.6499     0.0000     6.0000 </r>
       <r>   -31.4674     0.0000     6.0000 </r>
       <r>   -31.2849     0.0000     6.0000 </r>
       <r>   -31.1024     0.0000     6.0000 </r>
       <r>   -30.9199     0.0000     6.0000 </r>
       <r>   -30.7374     0.0000     6.0000 </r>
       <r>   -30.5548     0.0000     6.0000 </r>
       <r>   -30.3723     0.0000     6.0000 </r>
       <r>   -30.1898     0.0000     6.0000 </r>
       <r>   -30.0073     0.0000     6.0000 </r>
       <r>   -29.8248     0.0000     6.0000 </r>
       <r>   -29.6422     0.0000     6.0000 </r>
       <r>   -29.4597     0.0000     6.0000 </r>
       <r>   -29.2772    10.9347     7.9958 </r>
       <r>   -29.0947     0.0000     8.0000 </r>
       <r>   -28.9122     0.0000     8.0000 </r>
       <r>   -28.7297     0.0000     8.0000 </r>
       <r>   -28.5471     0.0000     8.0000 </r>
       <r>   -28.3646     0.0000     8.0000 </r>
       <r>   -28.1821     0.0000     8.0000 </r>
       <r>   -27.9996     0.0000     8.0000 </r>
       <r>   -27.8171     0.0000     8.0000 </r>
       <r>   -27.6346     0.0000    10.0000 </r>
       <r>   -27.4520     0.0000    10.0000 </r>
       <r>   -27.2695     0.0000    10.0000 </r>
       <r>   -27.0870     0.0000    10.0000 </r>
       <r>   -26.9045    10.7613    11.9641 </r>
       <r>   -26.7220    10.9578    14.0000 </r>
       <r>   -26.5394     0.0000    14.0000 </r>
       <r>   -26.3569     0.0000    14.0000 </r>
       <r>   -26.1744     8.0477    15.4688 </r>
       <r>   -25.9919     0.0000    18.0000 </r>
       <r>   -25.8094     0.0000    18.0000 </r>
       <r>   -25.6269     0.0000    18.0000 </r>
       <r>   -25.4443     0.0000    18.0000 </r>
       <r>   -25.2618     0.0000    18.0000 </r>
       <r>   -25.0793     0.0000    18.0000 </r>
       <r>   -24.8968     0.0000    18.0000 </r>
       <r>   -24.7143     0.0000    18.0000 </r>
       <r>   -24.5318     0.0000    18.0000 </r>
       <r>   -24.3492     0.0000    18.0000 </r>
       <r>   -24.1667     0.0000    18.0000 </r>
       <r>   -23.9842     0.0000    18.0000 </r>
       <r>   -23.8017     0.0000    18.0000 </r>
       <r>   -23.6192     0.0000    18.0000 </r>
       <r>   -23.4366     0.0000    18.0000 </r>
       <r>   -23.2541    10.7124    19.9552 </r>
       <r>   -23.0716     0.0000    20.0000 </r>
       <r>   -22.8891     0.0000    20.0000 </r>
       <r>   -22.7066    10.9578    22.0000 </r>
       <r>   -22.5241     0.0000    22.0000 </r>
       <r>   -22.3415    15.8675    26.8961 </r>
       <r>   -22.1590    21.9138    33.9997 </r>
       <r>   -21.9765     0.0000    34.0000 </r>
       <r>   -21.7940     0.0000    34.0000 </r>
       <r>   -21.6115     0.0000    34.0000 </r>
       <r>   -21.4290     0.0000    34.0000 </r>
       <r>   -21.2464     0.0000    34.0000 </r>
       <r>   -21.0639     0.0000    34.0000 </r>
       <r>   -20.8814     0.0000    34.0000 </r>
       <r>   -20.6989     0.0000    38.0000 </r>
       <r>   -20.5164     0.0000    38.0000 </r>
       <r>   -20.3339     0.0000    38.0000 </r>
       <r>   -20.1513     0.0000    38.0000 </r>
       <r>   -19.9688     0.0000    38.0000 </r>
       <r>   -19.7863     0.0000    38.0000 </r>
       <r>   -19.6038     0.0000    38.0000 </r>
       <r>   -19.4213     0.0000    38.0000 </r>
       <r>   -19.2387     0.0000    38.0000 </r>
       <r>   -19.0562     0.0000    40.0000 </r>
       <r>   -18.8737     0.0000    42.0000 </r>
       <r>   -18.6912    20.4382    45.7303 </r>
       <r>   -18.5087     0.0000    46.0000 </r>
       <r>   -18.3262     0.0000    50.0000 </r>
       <r>   -18.1436     0.0000    50.0000 </r>
       <r>   -17.9611     0.0000    50.0000 </r>
       <r>   -17.7786     0.0000    50.0000 </r>
       <r>   -17.5961    16.6302    53.0353 </r>
       <r>   -17.4136     0.0000    54.0000 </r>
       <r>   -17.2311    10.9578    58.0000 </r>
       <r>   -17.0485     0.0000    58.0000 </r>
       <r>   -16.8660     0.0000    60.0000 </r>
       <r>   -16.6835     0.0000    60.0000 </r>
       <r>   -16.5010     0.0000    62.0000 </r>
       <r>   -16.3185     0.0000    62.0000 </r>
       <r>   -16.1359     0.0000    62.0000 </r>
       <r>   -15.9534     0.2053    62.0375 </r>
       <r>   -15.7709     0.0017    64.0003 </r>
       <r>   -15.5884     0.0000    66.0000 </r>
       <r>   -15.4059    10.9578    68.0000 </r>
       <r>   -15.2234     0.0000    68.0000 </r>
       <r>   -15.0408     0.0000    68.0000 </r>
       <r>   -14.8583     0.0000    68.0000 </r>
       <r>   -14.6758    25.7077    74.6921 </r>
       <r>   -14.4933     0.0000    78.0000 </r>
       <r>   -14.3108     0.0000    78.0000 </r>
       <r>   -14.1283    10.9573    79.9999 </r>
       <r>   -13.9457    10.9578    84.0000 </r>
       <r>   -13.7632    22.1939    90.0508 </r>
       <r>   -13.5807     0.0000    92.0000 </r>
       <r>   -13.3982    11.8830    94.1689 </r>
       <r>   -13.2157     0.0857    96.0156 </r>
       <r>   -13.0331     0.1201   100.0219 </r>
       <r>   -12.8506    10.9578   104.0000 </r>
       <r>   -12.6681     0.0000   108.0000 </r>
       <r>   -12.4856     0.0000   110.0000 </r>
       <r>   -12.3031    10.9578   114.0000 </r>
       <r>   -12.1206    21.9004   117.9972 </r>
       <r>   -11.9380     0.0000   118.0000 </r>
       <r>   -11.7555     0.0000   120.0000 </r>
       <r>   -11.5730     0.3514   120.0641 </r>
       <r>   -11.3905     0.0000   122.0000 </r>
       <r>   -11.2080    10.9578   126.0000 </r>
       <r>   -11.0255    10.9578   132.0000 </r>
       <r>   -10.8429     0.0000   132.0000 </r>
       <r>   -10.6604    10.9578   134.0000 </r>
       <r>   -10.4779    10.9579   136.0000 </r>
       <r>   -10.2954     0.0000   138.0000 </r>
       <r>   -10.1129    10.9578   142.0000 </r>
       <r>    -9.9303     8.9367   143.6311 </r>
       <r>    -9.7478    24.1984   150.4166 </r>
       <r>    -9.5653     0.0000   154.0000 </r>
       <r>    -9.3828     0.0000   156.0000 </r>
       <r>    -9.2003     0.0000   156.0000 </r>
       <r>    -9.0178     0.0000   156.0000 </r>
       <r>    -8.8352     0.0000   156.0000 </r>
       <r>    -8.6527     0.0000   156.0000 </r>
       <r>    -8.4702     0.0000   156.0000 </r>
       <r>    -8.2877    10.9578   160.0000 </r>
       <r>    -8.1052     0.0000   160.0000 </r>
       <r>    -7.9227     0.0000   160.0000 </r>
       <r>    -7.7401     0.0000   160.0000 </r>
       <r>    -7.5576     0.0000   160.0000 </r>
       <r>    -7.3751    10.9578   162.0000 </r>
       <r>    -7.1926    10.9578   164.0000 </r>
       <r>    -7.0101     0.0000   166.0000 </r>
       <r>    -6.8276     0.0000   166.0000 </r>
       <r>    -6.6450     0.0000   166.0000 </r>
       <r>    -6.4625     0.0000   166.0000 </r>
       <r>    -6.2800     0.0000   166.0000 </r>
       <r>    -6.0975     0.0000   166.0000 </r>
       <r>    -5.9150     0.0000   166.0000 </r>
       <r>    -5.7324     0.0000   166.0000 </r>
       <r>    -5.5499     0.0000   166.0000 </r>
       <r>    -5.3674    10.9578   168.0000 </r>
       <r>    -5.1849     0.0000   168.0000 </r>
       <r>    -5.0024    10.6473   169.9433 </r>
       <r>    -4.8199     0.0000   172.0000 </r>
       <r>    -4.6373     0.0000   174.0000 </r>
       <r>    -4.4548     0.0000   174.0000 </r>
       <r>    -4.2723     3.8767   174.7076 </r>
       <r>    -4.0898     8.2425   177.5044 </r>
       <r>    -3.9073    10.9578   182.0000 </r>
       <r>    -3.7248     0.0000   184.0000 </r>
       <r>    -3.5422     0.0000   184.0000 </r>
       <r>    -3.3597     0.0000   184.0000 </r>
       <r>    -3.1772    10.9523   185.9990 </r>
       <r>    -2.9947     0.0000   186.0000 </r>
       <r>    -2.8122     0.0031   188.0006 </r>
       <r>    -2.6296    10.9578   192.0000 </r>
       <r>    -2.4471     0.0000   192.0000 </r>
       <r>    -2.2646     0.0000   192.0000 </r>
       <r>    -2.0821     0.0000   192.0000 </r>
       <r>    -1.8996     0.4997   192.0912 </r>
       <r>    -1.7171     0.0000   194.0000 </r>
       <r>    -1.5345     0.0000   198.0000 </r>
       <r>    -1.3520    10.9578   200.0000 </r>
       <r>    -1.1695    11.0780   202.0219 </r>
       <r>    -0.9870    10.9578   206.0000 </r>
       <r>    -0.8045    10.5628   211.9279 </r>
       <r>    -0.6220    10.9578   216.0000 </r>
       <r>    -0.4394    10.9455   219.9978 </r>
       <r>    -0.2569    10.9578   226.0000 </r>
       <r>    -0.0744    21.1187   231.8545 </r>
       <r>     0.1081     9.8893   235.8050 </r>
       <r>     0.2906     1.1532   238.2105 </r>
       <r>     0.4732    18.7172   245.4162 </r>
       <r>     0.6557    31.7586   251.7965 </r>
       <r>     0.8382     0.0000   256.0000 </r>
       <r>     1.0207     0.0000   256.0000 </r>
       <r>     1.2032     0.0000   256.0000 </r>
       <r>     1.3857     0.0000   256.0000 </r>
       <r>     1.5683     0.0000   256.0000 </r>
       <r>     1.7508     0.0000   256.0000 </r>
       <r>     1.9333     0.0000   256.0000 </r>
       <r>     2.1158     0.0000   256.0000 </r>
       <r>     2.2983     0.0000   256.0000 </r>
       <r>     2.4808     0.0000   256.0000 </r>
       <r>     2.6634     0.0000   256.0000 </r>
       <r>     2.8459     0.0000   256.0000 </r>
       <r>     3.0284     0.0000   256.0000 </r>
       <r>     3.2109     0.0000   256.0000 </r>
      </set>
     </set>
    </array>
   </total>
  </dos>
 </calculation>
 <structure name="finalpos" >
  <crystal>
   <varray name="basis" >
    <v>      20.00000000       0.00000000       0.00000000 </v>
    <v>       0.00000000      20.00000000       0.00000000 </v>
    <v>       0.00000000       0.00000000      20.00000000 </v>
   </varray>
   <i name="volume">   8000.00000000 </i>
   <varray name="rec_basis" >
    <v>       0.05000000       0.00000000       0.00000000 </v>
    <v>       0.00000000       0.05000000       0.00000000 </v>
    <v>       0.00000000       0.00000000       0.05000000 </v>
   </varray>
  </crystal>
  <varray name="positions" >
   <v>       0.45581208       0.52423376       0.38051465 </v>
   <v>       0.43793752       0.56561110       0.32757008 </v>
   <v>       0.29334713       0.47671938       0.56830116 </v>
   <v>       0.47372925       0.61530131       0.44986522 </v>
   <v>       0.45595175       0.65963312       0.39935201 </v>
   <v>       0.43785737       0.63472201       0.33675972 </v>
   <v>       0.52307882       0.32955005       0.67474498 </v>
   <v>       0.49710163       0.37190466       0.62618823 </v>
   <v>       0.60227374       0.41933300       0.60593616 </v>
   <v>       0.63096398       0.37761922       0.65422416 </v>
   <v>       0.73964927       0.52855915       0.53463181 </v>
   <v>       0.70082162       0.56612858       0.49044049 </v>
   <v>       0.63257913       0.55363620       0.48652424 </v>
   <v>       0.63952130       0.46927713       0.56732841 </v>
   <v>       0.70843899       0.47974495       0.57314689 </v>
   <v>       0.59134754       0.33224398       0.68903016 </v>
   <v>       0.36211554       0.48866484       0.56417415 </v>
   <v>       0.40790931       0.62211625       0.69058213 </v>
   <v>       0.47619960       0.62606623       0.67660612 </v>
   <v>       0.50295190       0.58590820       0.62668073 </v>
   <v>       0.39825425       0.53800137       0.60426081 </v>
   <v>       0.36904589       0.57756069       0.65398228 </v>
   <v>       0.37289802       0.40579857       0.48223443 </v>
   <v>       0.30486503       0.39173492       0.48443166 </v>
   <v>       0.26422003       0.42785518       0.52821594 </v>
   <v>       0.48989745       0.29510618       0.70074864 </v>
   <v>       0.61334240       0.29968355       0.72673159 </v>
   <v>       0.68424189       0.38076917       0.66478776 </v>
   <v>       0.54225374       0.36233861       0.46129841 </v>
   <v>       0.31579090       0.57306911       0.66420366 </v>
   <v>       0.44416348       0.37118871       0.61364770 </v>
   <v>       0.42392665       0.66833230       0.29622671 </v>
   <v>       0.45642762       0.71313270       0.40950260 </v>
   <v>       0.48809132       0.63358802       0.49907234 </v>
   <v>       0.56912778       0.41808713       0.41480476 </v>
   <v>       0.73767440       0.44963919       0.60776512 </v>
   <v>       0.72277620       0.60481012       0.45904817 </v>
   <v>       0.45570253       0.47012894       0.37468790 </v>
   <v>       0.40614333       0.37888556       0.44852541 </v>
   <v>       0.28443799       0.35306162       0.45202062 </v>
   <v>       0.79326502       0.53703787       0.53892527 </v>
   <v>       0.55589708       0.58769132       0.61440612 </v>
   <v>       0.42412006       0.54328620       0.27986105 </v>
   <v>       0.50894741       0.65984570       0.70400156 </v>
   <v>       0.26265982       0.50568523       0.60265428 </v>
   <v>       0.21072272       0.41813760       0.53105039 </v>
   <v>       0.60090654       0.58197914       0.45254259 </v>
   <v>       0.38544357       0.65296704       0.72941133 </v>
   <v>       0.47424490       0.54794204       0.44140236 </v>
   <v>       0.40180479       0.45306079       0.52108436 </v>
   <v>       0.53520702       0.41608490       0.59173240 </v>
   <v>       0.46544808       0.54254992       0.59041194 </v>
   <v>       0.60138410       0.50650621       0.52397638 </v>
   <v>       0.53073984       0.40562607       0.44215451 </v>
   <v>       0.50088568       0.48087016       0.51934246 </v>
  </varray>
  <varray name="selective"  type="logical" >
   <v type="logical" >  T  T  T </v>
   <v type="logical" >  T  T  T </v>
   <v type="logical" >  T  T  T </v>
   <v type="logical" >  T  T  T </v>
   <v type="logical" >  T  T  T </v>
   <v type="logical" >  T  T  T </v>
   <v type="logical" >  T  T  T </v>
   <v type="logical" >  T  T  T </v>
   <v type="logical" >  T  T  T </v>
   <v type="logical" >  T  T  T </v>
   <v type="logical" >  T  T  T </v>
   <v type="logical" >  T  T  T </v>
   <v type="logical" >  T  T  T </v>
   <v type="logical" >  T  T  T </v>
   <v type="logical" >  T  T  T </v>
   <v type="logical" >  T  T  T </v>
   <v type="logical" >  T  T  T </v>
   <v type="logical" >  T  T  T </v>
   <v type="logical" >  T  T  T </v>
   <v type="logical" >  T  T  T </v>
   <v type="logical" >  T  T  T </v>
   <v type="logical" >  T  T  T </v>
   <v type="logical" >  T  T  T </v>
   <v type="logical" >  T  T  T </v>
   <v type="logical" >  T  T  T </v>
   <v type="logical" >  T  T  T </v>
   <v type="logical" >  T  T  T </v>
   <v type="logical" >  T  T  T </v>
   <v type="logical" >  T  T  T </v>
   <v type="logical" >  T  T  T </v>
   <v type="logical" >  T  T  T </v>
   <v type="logical" >  T  T  T </v>
   <v type="logical" >  T  T  T </v>
   <v type="logical" >  T  T  T </v>
   <v type="logical" >  T  T  T </v>
   <v type="logical" >  T  T  T </v>
   <v type="logical" >  T  T  T </v>
   <v type="logical" >  T  T  T </v>
   <v type="logical" >  T  T  T </v>
   <v type="logical" >  T  T  T </v>
   <v type="logical" >  T  T  T </v>
   <v type="logical" >  T  T  T </v>
   <v type="logical" >  T  T  T </v>
   <v type="logical" >  T  T  T </v>
   <v type="logical" >  T  T  T </v>
   <v type="logical" >  T  T  T </v>
   <v type="logical" >  T  T  T </v>
   <v type="logical" >  T  T  T </v>
   <v type="logical" >  T  T  T </v>
   <v type="logical" >  T  T  T </v>
   <v type="logical" >  T  T  T </v>
   <v type="logical" >  T  T  T </v>
   <v type="logical" >  T  T  T </v>
   <v type="logical" >  T  T  T </v>
   <v type="logical" >  T  T  T </v>
  </varray>
  <nose>
   <v>      -3.00000000       0.00000000       0.00010000       0.00010000 </v>
  </nose>
 </structure>
</modeling>
