  55  55   0   0
  0.1454545E+03  0.2000000E-08  0.2000000E-08  0.2000000E-08  0.5000000E-15
  1.000000000000000E-004
  CAR 
 c2_oh2_ruthenium_mol                    
      3.18774455    -51.57495413  301     -6.98899029      1.00000000
    -51.575  0.0000E+00  0.0000E+00  0.0000E+00  0.0000E+00
    -51.392  0.0000E+00  0.0000E+00  0.0000E+00  0.0000E+00
    -51.210  0.0000E+00  0.0000E+00  0.0000E+00  0.0000E+00
    -51.027  0.0000E+00  0.0000E+00  0.0000E+00  0.0000E+00
    -50.845  0.0000E+00  0.0000E+00  0.0000E+00  0.0000E+00
    -50.662  0.0000E+00  0.0000E+00  0.0000E+00  0.0000E+00
    -50.480  0.0000E+00  0.0000E+00  0.0000E+00  0.0000E+00
    -50.297  0.0000E+00  0.0000E+00  0.0000E+00  0.0000E+00
    -50.115  0.0000E+00  0.0000E+00  0.0000E+00  0.0000E+00
    -49.932  0.0000E+00  0.0000E+00  0.0000E+00  0.0000E+00
    -49.750  0.0000E+00  0.0000E+00  0.0000E+00  0.0000E+00
    -49.567  0.0000E+00  0.0000E+00  0.0000E+00  0.0000E+00
    -49.384  0.0000E+00  0.0000E+00  0.0000E+00  0.0000E+00
    -49.202  0.0000E+00  0.0000E+00  0.0000E+00  0.0000E+00
    -49.019  0.1096E+02  0.1096E+02  0.2000E+01  0.2000E+01
    -48.837  0.0000E+00  0.0000E+00  0.4000E+01  0.4000E+01
    -48.654  0.1096E+02  0.1096E+02  0.6000E+01  0.6000E+01
    -48.472  0.0000E+00  0.0000E+00  0.6000E+01  0.6000E+01
    -48.289  0.0000E+00  0.0000E+00  0.6000E+01  0.6000E+01
    -48.107  0.0000E+00  0.0000E+00  0.6000E+01  0.6000E+01
    -47.924  0.0000E+00  0.0000E+00  0.6000E+01  0.6000E+01
    -47.742  0.0000E+00  0.0000E+00  0.6000E+01  0.6000E+01
    -47.559  0.0000E+00  0.0000E+00  0.6000E+01  0.6000E+01
    -47.376  0.0000E+00  0.0000E+00  0.6000E+01  0.6000E+01
    -47.194  0.0000E+00  0.0000E+00  0.6000E+01  0.6000E+01
    -47.011  0.0000E+00  0.0000E+00  0.6000E+01  0.6000E+01
    -46.829  0.0000E+00  0.0000E+00  0.6000E+01  0.6000E+01
    -46.646  0.0000E+00  0.0000E+00  0.6000E+01  0.6000E+01
    -46.464  0.0000E+00  0.0000E+00  0.6000E+01  0.6000E+01
    -46.281  0.0000E+00  0.0000E+00  0.6000E+01  0.6000E+01
    -46.099  0.0000E+00  0.0000E+00  0.6000E+01  0.6000E+01
    -45.916  0.0000E+00  0.0000E+00  0.6000E+01  0.6000E+01
    -45.734  0.0000E+00  0.0000E+00  0.6000E+01  0.6000E+01
    -45.551  0.0000E+00  0.0000E+00  0.6000E+01  0.6000E+01
    -45.369  0.0000E+00  0.0000E+00  0.6000E+01  0.6000E+01
    -45.186  0.0000E+00  0.0000E+00  0.6000E+01  0.6000E+01
    -45.003  0.0000E+00  0.0000E+00  0.6000E+01  0.6000E+01
    -44.821  0.0000E+00  0.0000E+00  0.6000E+01  0.6000E+01
    -44.638  0.0000E+00  0.0000E+00  0.6000E+01  0.6000E+01
    -44.456  0.0000E+00  0.0000E+00  0.6000E+01  0.6000E+01
    -44.273  0.0000E+00  0.0000E+00  0.6000E+01  0.6000E+01
    -44.091  0.0000E+00  0.0000E+00  0.6000E+01  0.6000E+01
    -43.908  0.0000E+00  0.0000E+00  0.6000E+01  0.6000E+01
    -43.726  0.0000E+00  0.0000E+00  0.6000E+01  0.6000E+01
    -43.543  0.0000E+00  0.0000E+00  0.6000E+01  0.6000E+01
    -43.361  0.0000E+00  0.0000E+00  0.6000E+01  0.6000E+01
    -43.178  0.0000E+00  0.0000E+00  0.6000E+01  0.6000E+01
    -42.995  0.0000E+00  0.0000E+00  0.6000E+01  0.6000E+01
    -42.813  0.0000E+00  0.0000E+00  0.6000E+01  0.6000E+01
    -42.630  0.0000E+00  0.0000E+00  0.6000E+01  0.6000E+01
    -42.448  0.0000E+00  0.0000E+00  0.6000E+01  0.6000E+01
    -42.265  0.0000E+00  0.0000E+00  0.6000E+01  0.6000E+01
    -42.083  0.0000E+00  0.0000E+00  0.6000E+01  0.6000E+01
    -41.900  0.0000E+00  0.0000E+00  0.6000E+01  0.6000E+01
    -41.718  0.0000E+00  0.0000E+00  0.6000E+01  0.6000E+01
    -41.535  0.0000E+00  0.0000E+00  0.6000E+01  0.6000E+01
    -41.353  0.0000E+00  0.0000E+00  0.6000E+01  0.6000E+01
    -41.170  0.0000E+00  0.0000E+00  0.6000E+01  0.6000E+01
    -40.987  0.0000E+00  0.0000E+00  0.6000E+01  0.6000E+01
    -40.805  0.0000E+00  0.0000E+00  0.6000E+01  0.6000E+01
    -40.622  0.0000E+00  0.0000E+00  0.6000E+01  0.6000E+01
    -40.440  0.0000E+00  0.0000E+00  0.6000E+01  0.6000E+01
    -40.257  0.0000E+00  0.0000E+00  0.6000E+01  0.6000E+01
    -40.075  0.0000E+00  0.0000E+00  0.6000E+01  0.6000E+01
    -39.892  0.0000E+00  0.0000E+00  0.6000E+01  0.6000E+01
    -39.710  0.0000E+00  0.0000E+00  0.6000E+01  0.6000E+01
    -39.527  0.0000E+00  0.0000E+00  0.6000E+01  0.6000E+01
    -39.345  0.0000E+00  0.0000E+00  0.6000E+01  0.6000E+01
    -39.162  0.0000E+00  0.0000E+00  0.6000E+01  0.6000E+01
    -38.980  0.0000E+00  0.0000E+00  0.6000E+01  0.6000E+01
    -38.797  0.0000E+00  0.0000E+00  0.6000E+01  0.6000E+01
    -38.614  0.0000E+00  0.0000E+00  0.6000E+01  0.6000E+01
    -38.432  0.0000E+00  0.0000E+00  0.6000E+01  0.6000E+01
    -38.249  0.0000E+00  0.0000E+00  0.6000E+01  0.6000E+01
    -38.067  0.0000E+00  0.0000E+00  0.6000E+01  0.6000E+01
    -37.884  0.0000E+00  0.0000E+00  0.6000E+01  0.6000E+01
    -37.702  0.0000E+00  0.0000E+00  0.6000E+01  0.6000E+01
    -37.519  0.0000E+00  0.0000E+00  0.6000E+01  0.6000E+01
    -37.337  0.0000E+00  0.0000E+00  0.6000E+01  0.6000E+01
    -37.154  0.0000E+00  0.0000E+00  0.6000E+01  0.6000E+01
    -36.972  0.0000E+00  0.0000E+00  0.6000E+01  0.6000E+01
    -36.789  0.0000E+00  0.0000E+00  0.6000E+01  0.6000E+01
    -36.606  0.0000E+00  0.0000E+00  0.6000E+01  0.6000E+01
    -36.424  0.0000E+00  0.0000E+00  0.6000E+01  0.6000E+01
    -36.241  0.0000E+00  0.0000E+00  0.6000E+01  0.6000E+01
    -36.059  0.0000E+00  0.0000E+00  0.6000E+01  0.6000E+01
    -35.876  0.0000E+00  0.0000E+00  0.6000E+01  0.6000E+01
    -35.694  0.0000E+00  0.0000E+00  0.6000E+01  0.6000E+01
    -35.511  0.0000E+00  0.0000E+00  0.6000E+01  0.6000E+01
    -35.329  0.0000E+00  0.0000E+00  0.6000E+01  0.6000E+01
    -35.146  0.0000E+00  0.0000E+00  0.6000E+01  0.6000E+01
    -34.964  0.0000E+00  0.0000E+00  0.6000E+01  0.6000E+01
    -34.781  0.0000E+00  0.0000E+00  0.6000E+01  0.6000E+01
    -34.599  0.0000E+00  0.0000E+00  0.6000E+01  0.6000E+01
    -34.416  0.0000E+00  0.0000E+00  0.6000E+01  0.6000E+01
    -34.233  0.0000E+00  0.0000E+00  0.6000E+01  0.6000E+01
    -34.051  0.0000E+00  0.0000E+00  0.6000E+01  0.6000E+01
    -33.868  0.0000E+00  0.0000E+00  0.6000E+01  0.6000E+01
    -33.686  0.0000E+00  0.0000E+00  0.6000E+01  0.6000E+01
    -33.503  0.0000E+00  0.0000E+00  0.6000E+01  0.6000E+01
    -33.321  0.0000E+00  0.0000E+00  0.6000E+01  0.6000E+01
    -33.138  0.0000E+00  0.0000E+00  0.6000E+01  0.6000E+01
    -32.956  0.0000E+00  0.0000E+00  0.6000E+01  0.6000E+01
    -32.773  0.0000E+00  0.0000E+00  0.6000E+01  0.6000E+01
    -32.591  0.0000E+00  0.0000E+00  0.6000E+01  0.6000E+01
    -32.408  0.0000E+00  0.0000E+00  0.6000E+01  0.6000E+01
    -32.225  0.0000E+00  0.0000E+00  0.6000E+01  0.6000E+01
    -32.043  0.0000E+00  0.0000E+00  0.6000E+01  0.6000E+01
    -31.860  0.0000E+00  0.0000E+00  0.6000E+01  0.6000E+01
    -31.678  0.0000E+00  0.0000E+00  0.6000E+01  0.6000E+01
    -31.495  0.0000E+00  0.0000E+00  0.6000E+01  0.6000E+01
    -31.313  0.0000E+00  0.0000E+00  0.6000E+01  0.6000E+01
    -31.130  0.0000E+00  0.0000E+00  0.6000E+01  0.6000E+01
    -30.948  0.0000E+00  0.0000E+00  0.6000E+01  0.6000E+01
    -30.765  0.0000E+00  0.0000E+00  0.6000E+01  0.6000E+01
    -30.583  0.0000E+00  0.0000E+00  0.6000E+01  0.6000E+01
    -30.400  0.0000E+00  0.0000E+00  0.6000E+01  0.6000E+01
    -30.218  0.0000E+00  0.0000E+00  0.6000E+01  0.6000E+01
    -30.035  0.0000E+00  0.0000E+00  0.6000E+01  0.6000E+01
    -29.852  0.0000E+00  0.0000E+00  0.6000E+01  0.6000E+01
    -29.670  0.0000E+00  0.0000E+00  0.6000E+01  0.6000E+01
    -29.487  0.0000E+00  0.0000E+00  0.6000E+01  0.6000E+01
    -29.305  0.0000E+00  0.0000E+00  0.6000E+01  0.6000E+01
    -29.122  0.0000E+00  0.0000E+00  0.8000E+01  0.8000E+01
    -28.940  0.0000E+00  0.0000E+00  0.8000E+01  0.8000E+01
    -28.757  0.0000E+00  0.0000E+00  0.8000E+01  0.8000E+01
    -28.575  0.0000E+00  0.0000E+00  0.8000E+01  0.8000E+01
    -28.392  0.0000E+00  0.0000E+00  0.8000E+01  0.8000E+01
    -28.210  0.0000E+00  0.0000E+00  0.8000E+01  0.8000E+01
    -28.027  0.0000E+00  0.0000E+00  0.8000E+01  0.8000E+01
    -27.844  0.0000E+00  0.0000E+00  0.8000E+01  0.8000E+01
    -27.662  0.0000E+00  0.0000E+00  0.8000E+01  0.8000E+01
    -27.479  0.0000E+00  0.0000E+00  0.1000E+02  0.1000E+02
    -27.297  0.0000E+00  0.0000E+00  0.1000E+02  0.1000E+02
    -27.114  0.0000E+00  0.0000E+00  0.1000E+02  0.1000E+02
    -26.932  0.0000E+00  0.0000E+00  0.1000E+02  0.1000E+02
    -26.749  0.0000E+00  0.0000E+00  0.1200E+02  0.1200E+02
    -26.567  0.1096E+02  0.1096E+02  0.1400E+02  0.1400E+02
    -26.384  0.0000E+00  0.0000E+00  0.1400E+02  0.1400E+02
    -26.202  0.0000E+00  0.0000E+00  0.1400E+02  0.1400E+02
    -26.019  0.0000E+00  0.0000E+00  0.1800E+02  0.1800E+02
    -25.836  0.0000E+00  0.0000E+00  0.1800E+02  0.1800E+02
    -25.654  0.0000E+00  0.0000E+00  0.1800E+02  0.1800E+02
    -25.471  0.0000E+00  0.0000E+00  0.1800E+02  0.1800E+02
    -25.289  0.0000E+00  0.0000E+00  0.1800E+02  0.1800E+02
    -25.106  0.0000E+00  0.0000E+00  0.1800E+02  0.1800E+02
    -24.924  0.0000E+00  0.0000E+00  0.1800E+02  0.1800E+02
    -24.741  0.0000E+00  0.0000E+00  0.1800E+02  0.1800E+02
    -24.559  0.0000E+00  0.0000E+00  0.1800E+02  0.1800E+02
    -24.376  0.0000E+00  0.0000E+00  0.1800E+02  0.1800E+02
    -24.194  0.4440E-12  0.4434E-12  0.1800E+02  0.1800E+02
    -24.011  0.0000E+00  0.0000E+00  0.2000E+02  0.2000E+02
    -23.829  0.0000E+00  0.0000E+00  0.2000E+02  0.2000E+02
    -23.646  0.0000E+00  0.0000E+00  0.2000E+02  0.2000E+02
    -23.463  0.0000E+00  0.0000E+00  0.2000E+02  0.2000E+02
    -23.281  0.0000E+00  0.0000E+00  0.2000E+02  0.2000E+02
    -23.098  0.1652E-04  0.1652E-04  0.2000E+02  0.2000E+02
    -22.916  0.0000E+00  0.0000E+00  0.2200E+02  0.2200E+02
    -22.733  0.0000E+00  0.0000E+00  0.2200E+02  0.2200E+02
    -22.551  0.0000E+00  0.0000E+00  0.2400E+02  0.2400E+02
    -22.368  0.1059E+02  0.1059E+02  0.2593E+02  0.2593E+02
    -22.186  0.5180E-07  0.5180E-07  0.2800E+02  0.2800E+02
    -22.003  0.4882E+00  0.4882E+00  0.3009E+02  0.3009E+02
    -21.821  0.0000E+00  0.0000E+00  0.3200E+02  0.3200E+02
    -21.638  0.0000E+00  0.0000E+00  0.3200E+02  0.3200E+02
    -21.455  0.0000E+00  0.0000E+00  0.3400E+02  0.3400E+02
    -21.273  0.0000E+00  0.0000E+00  0.3400E+02  0.3400E+02
    -21.090  0.1411E-02  0.1411E-02  0.3400E+02  0.3400E+02
    -20.908  0.0000E+00  0.0000E+00  0.3600E+02  0.3600E+02
    -20.725  0.1095E+02  0.1095E+02  0.3800E+02  0.3800E+02
    -20.543  0.0000E+00  0.0000E+00  0.3800E+02  0.3800E+02
    -20.360  0.0000E+00  0.0000E+00  0.3800E+02  0.3800E+02
    -20.178  0.0000E+00  0.0000E+00  0.3800E+02  0.3800E+02
    -19.995  0.0000E+00  0.0000E+00  0.3800E+02  0.3800E+02
    -19.813  0.0000E+00  0.0000E+00  0.3800E+02  0.3800E+02
    -19.630  0.6029E+01  0.6029E+01  0.3910E+02  0.3910E+02
    -19.448  0.7907E-14  0.7907E-14  0.4000E+02  0.4000E+02
    -19.265  0.0000E+00  0.0000E+00  0.4200E+02  0.4200E+02
    -19.082  0.0000E+00  0.0000E+00  0.4200E+02  0.4200E+02
    -18.900  0.0000E+00  0.0000E+00  0.4200E+02  0.4200E+02
    -18.717  0.4942E-04  0.4942E-04  0.4200E+02  0.4200E+02
    -18.535  0.0000E+00  0.0000E+00  0.4400E+02  0.4400E+02
    -18.352  0.1096E+02  0.1096E+02  0.4600E+02  0.4600E+02
    -18.170  0.0000E+00  0.0000E+00  0.4800E+02  0.4800E+02
    -17.987  0.1096E+02  0.1096E+02  0.5000E+02  0.5000E+02
    -17.805  0.2197E+01  0.2197E+01  0.5040E+02  0.5040E+02
    -17.622  0.7210E-07  0.7210E-07  0.5200E+02  0.5200E+02
    -17.440  0.0000E+00  0.0000E+00  0.5600E+02  0.5600E+02
    -17.257  0.6421E+01  0.6421E+01  0.5717E+02  0.5717E+02
    -17.074  0.0000E+00  0.0000E+00  0.5800E+02  0.5800E+02
    -16.892  0.2185E+01  0.2185E+01  0.5840E+02  0.5840E+02
    -16.709  0.4243E-03  0.4243E-03  0.6000E+02  0.6000E+02
    -16.527  0.0000E+00  0.0000E+00  0.6200E+02  0.6200E+02
    -16.344  0.0000E+00  0.0000E+00  0.6200E+02  0.6200E+02
    -16.162  0.0000E+00  0.0000E+00  0.6200E+02  0.6200E+02
    -15.979  0.0000E+00  0.0000E+00  0.6200E+02  0.6200E+02
    -15.797  0.1096E+02  0.1096E+02  0.6400E+02  0.6400E+02
    -15.614  0.0000E+00  0.0000E+00  0.6600E+02  0.6600E+02
    -15.432  0.1096E+02  0.1096E+02  0.6800E+02  0.6800E+02
    -15.249  0.7248E-09  0.7247E-09  0.6800E+02  0.6800E+02
    -15.066  0.0000E+00  0.0000E+00  0.7000E+02  0.7000E+02
    -14.884  0.9748E+01  0.9748E+01  0.7178E+02  0.7178E+02
    -14.701  0.1095E+02  0.1095E+02  0.7400E+02  0.7400E+02
    -14.519  0.1434E-03  0.1434E-03  0.7600E+02  0.7600E+02
    -14.336  0.0000E+00  0.0000E+00  0.7800E+02  0.7800E+02
    -14.154  0.4708E-02  0.4708E-02  0.7800E+02  0.7800E+02
    -13.971  0.2460E+02  0.2460E+02  0.8449E+02  0.8449E+02
    -13.789  0.1360E-07  0.1360E-07  0.8800E+02  0.8800E+02
    -13.606  0.1096E+02  0.1096E+02  0.9200E+02  0.9200E+02
    -13.424  0.1096E+02  0.1096E+02  0.9400E+02  0.9400E+02
    -13.241  0.7907E-14  0.7907E-14  0.9600E+02  0.9600E+02
    -13.059  0.1095E+02  0.1095E+02  0.1000E+03  0.1000E+03
    -12.876  0.1096E+02  0.1096E+02  0.1020E+03  0.1020E+03
    -12.693  0.2938E-12  0.2938E-12  0.1060E+03  0.1060E+03
    -12.511  0.1096E+02  0.1096E+02  0.1100E+03  0.1100E+03
    -12.328  0.1088E+02  0.1088E+02  0.1140E+03  0.1140E+03
    -12.146  0.1089E+02  0.1089E+02  0.1160E+03  0.1160E+03
    -11.963  0.1096E+02  0.1096E+02  0.1200E+03  0.1200E+03
    -11.781  0.0000E+00  0.0000E+00  0.1200E+03  0.1200E+03
    -11.598  0.1096E+02  0.1096E+02  0.1220E+03  0.1220E+03
    -11.416  0.0000E+00  0.0000E+00  0.1240E+03  0.1240E+03
    -11.233  0.0000E+00  0.0000E+00  0.1260E+03  0.1260E+03
    -11.051  0.4175E+01  0.4176E+01  0.1288E+03  0.1288E+03
    -10.868  0.0000E+00  0.0000E+00  0.1320E+03  0.1320E+03
    -10.685  0.8124E+01  0.8124E+01  0.1355E+03  0.1355E+03
    -10.503  0.2439E+00  0.2439E+00  0.1360E+03  0.1360E+03
    -10.320  0.0000E+00  0.0000E+00  0.1400E+03  0.1400E+03
    -10.138  0.8675E-01  0.8675E-01  0.1400E+03  0.1400E+03
     -9.955  0.0000E+00  0.0000E+00  0.1440E+03  0.1440E+03
     -9.773  0.2237E-09  0.2237E-09  0.1460E+03  0.1460E+03
     -9.590  0.7405E+01  0.7405E+01  0.1514E+03  0.1514E+03
     -9.408  0.0000E+00  0.0000E+00  0.1520E+03  0.1520E+03
     -9.225  0.0000E+00  0.0000E+00  0.1540E+03  0.1540E+03
     -9.043  0.1096E+02  0.1096E+02  0.1560E+03  0.1560E+03
     -8.860  0.0000E+00  0.0000E+00  0.1560E+03  0.1560E+03
     -8.678  0.1069E+02  0.1069E+02  0.1580E+03  0.1580E+03
     -8.495  0.0000E+00  0.0000E+00  0.1580E+03  0.1580E+03
     -8.312  0.1074E+02  0.1074E+02  0.1600E+03  0.1600E+03
     -8.130  0.0000E+00  0.0000E+00  0.1600E+03  0.1600E+03
     -7.947  0.0000E+00  0.0000E+00  0.1600E+03  0.1600E+03
     -7.765  0.0000E+00  0.0000E+00  0.1600E+03  0.1600E+03
     -7.582  0.0000E+00  0.0000E+00  0.1600E+03  0.1600E+03
     -7.400  0.1096E+02  0.1096E+02  0.1620E+03  0.1620E+03
     -7.217  0.1096E+02  0.1096E+02  0.1640E+03  0.1640E+03
     -7.035  0.1096E+02  0.1096E+02  0.1660E+03  0.1660E+03
     -6.852  0.0000E+00  0.0000E+00  0.1660E+03  0.1660E+03
     -6.670  0.0000E+00  0.0000E+00  0.1660E+03  0.1660E+03
     -6.487  0.0000E+00  0.0000E+00  0.1660E+03  0.1660E+03
     -6.304  0.0000E+00  0.0000E+00  0.1660E+03  0.1660E+03
     -6.122  0.0000E+00  0.0000E+00  0.1660E+03  0.1660E+03
     -5.939  0.0000E+00  0.0000E+00  0.1660E+03  0.1660E+03
     -5.757  0.1514E-11  0.1514E-11  0.1660E+03  0.1660E+03
     -5.574  0.0000E+00  0.0000E+00  0.1680E+03  0.1680E+03
     -5.392  0.2433E-14  0.2433E-14  0.1680E+03  0.1680E+03
     -5.209  0.0000E+00  0.0000E+00  0.1700E+03  0.1700E+03
     -5.027  0.0000E+00  0.0000E+00  0.1700E+03  0.1700E+03
     -4.844  0.1096E+02  0.1096E+02  0.1720E+03  0.1720E+03
     -4.662  0.0000E+00  0.0000E+00  0.1720E+03  0.1720E+03
     -4.479  0.0000E+00  0.0000E+00  0.1720E+03  0.1720E+03
     -4.296  0.0000E+00  0.0000E+00  0.1740E+03  0.1740E+03
     -4.114  0.2686E+01  0.2686E+01  0.1745E+03  0.1745E+03
     -3.931  0.1189E-01  0.1189E-01  0.1780E+03  0.1780E+03
     -3.749  0.0000E+00  0.0000E+00  0.1820E+03  0.1820E+03
     -3.566  0.0000E+00  0.0000E+00  0.1820E+03  0.1820E+03
     -3.384  0.0000E+00  0.0000E+00  0.1840E+03  0.1840E+03
     -3.201  0.2260E-11  0.2261E-11  0.1860E+03  0.1860E+03
     -3.019  0.0000E+00  0.0000E+00  0.1880E+03  0.1880E+03
     -2.836  0.0000E+00  0.0000E+00  0.1900E+03  0.1900E+03
     -2.654  0.1059E+02  0.1059E+02  0.1919E+03  0.1919E+03
     -2.471  0.0000E+00  0.0000E+00  0.1920E+03  0.1920E+03
     -2.289  0.0000E+00  0.0000E+00  0.1920E+03  0.1920E+03
     -2.106  0.9435E-05  0.9425E-05  0.1920E+03  0.1920E+03
     -1.923  0.0000E+00  0.0000E+00  0.1940E+03  0.1940E+03
     -1.741  0.1971E+01  0.1971E+01  0.1944E+03  0.1944E+03
     -1.558  0.0000E+00  0.0000E+00  0.1980E+03  0.1980E+03
     -1.376  0.0000E+00  0.0000E+00  0.2000E+03  0.2000E+03
     -1.193  0.1493E-02  0.1493E-02  0.2020E+03  0.2020E+03
     -1.011  0.1096E+02  0.1096E+02  0.2060E+03  0.2060E+03
     -0.828  0.0000E+00  0.0000E+00  0.2100E+03  0.2100E+03
     -0.646  0.3064E+02  0.3064E+02  0.2156E+03  0.2156E+03
     -0.463  0.2432E-03  0.2432E-03  0.2180E+03  0.2180E+03
     -0.281  0.2168E+02  0.2168E+02  0.2260E+03  0.2260E+03
     -0.098  0.1096E+02  0.1096E+02  0.2280E+03  0.2280E+03
      0.085  0.3276E+02  0.3276E+02  0.2340E+03  0.2340E+03
      0.267  0.2193E+02  0.2193E+02  0.2400E+03  0.2400E+03
      0.450  0.1126E+02  0.1126E+02  0.2461E+03  0.2461E+03
      0.632  0.2217E+02  0.2217E+02  0.2520E+03  0.2520E+03
      0.815  0.0000E+00  0.0000E+00  0.2560E+03  0.2560E+03
      0.997  0.0000E+00  0.0000E+00  0.2560E+03  0.2560E+03
      1.180  0.0000E+00  0.0000E+00  0.2560E+03  0.2560E+03
      1.362  0.0000E+00  0.0000E+00  0.2560E+03  0.2560E+03
      1.545  0.0000E+00  0.0000E+00  0.2560E+03  0.2560E+03
      1.727  0.0000E+00  0.0000E+00  0.2560E+03  0.2560E+03
      1.910  0.0000E+00  0.0000E+00  0.2560E+03  0.2560E+03
      2.092  0.0000E+00  0.0000E+00  0.2560E+03  0.2560E+03
      2.275  0.0000E+00  0.0000E+00  0.2560E+03  0.2560E+03
      2.458  0.0000E+00  0.0000E+00  0.2560E+03  0.2560E+03
      2.640  0.0000E+00  0.0000E+00  0.2560E+03  0.2560E+03
      2.823  0.0000E+00  0.0000E+00  0.2560E+03  0.2560E+03
      3.005  0.0000E+00  0.0000E+00  0.2560E+03  0.2560E+03
      3.188  0.0000E+00  0.0000E+00  0.2560E+03  0.2560E+03
