   55   55    1    2
  0.1454545E+03  0.2000000E-08  0.2000000E-08  0.2000000E-08  0.5000000E-15
  1.000000000000000E-004
  CAR 
 c2_oh2_ruthenium_mol                    
    166      1    128
 
  0.0000000E+00  0.0000000E+00  0.0000000E+00  0.1000000E+01
    1      -49.085740    -49.085741
    2      -48.941905    -48.941905
    3      -48.716285    -48.716285
    4      -29.213060    -29.213060
    5      -27.579265    -27.579265
    6      -26.831956    -26.831956
    7      -26.630082    -26.630082
    8      -26.125941    -26.125941
    9      -26.106403    -26.106403
   10      -24.140793    -24.140793
   11      -23.065331    -23.065331
   12      -22.633461    -22.633461
   13      -22.381159    -22.381159
   14      -22.272979    -22.272979
   15      -22.145050    -22.145050
   16      -21.991075    -21.991075
   17      -21.551230    -21.551230
   18      -21.064543    -21.064543
   19      -20.748485    -20.748485
   20      -19.630940    -19.630940
   21      -19.391057    -19.391057
   22      -18.685944    -18.685944
   23      -18.402686    -18.402686
   24      -18.253796    -18.253796
   25      -18.027943    -18.027943
   26      -17.798685    -17.798685
   27      -17.581889    -17.581889
   28      -17.563628    -17.563628
   29      -17.258533    -17.258533
   30      -16.885946    -16.885946
   31      -16.681424    -16.681423
   32      -15.856936    -15.856936
   33      -15.760320    -15.760320
   34      -15.488468    -15.488468
   35      -15.203603    -15.203603
   36      -14.892607    -14.892607
   37      -14.725342    -14.725342
   38      -14.668758    -14.668758
   39      -14.489132    -14.489132
   40      -14.130209    -14.130209
   41      -14.048963    -14.048963
   42      -13.978091    -13.978091
   43      -13.969645    -13.969645
   44      -13.870747    -13.870747
   45      -13.746530    -13.746530
   46      -13.643399    -13.643399
   47      -13.478462    -13.478462
   48      -13.338260    -13.338260
   49      -13.184621    -13.184621
   50      -13.083224    -13.083224
   51      -12.908918    -12.908918
   52      -12.821080    -12.821080
   53      -12.776925    -12.776925
   54      -12.640245    -12.640245
   55      -12.560328    -12.560328
   56      -12.449663    -12.449663
   57      -12.345620    -12.345620
   58      -12.163435    -12.163435
   59      -12.117576    -12.117576
   60      -11.993547    -11.993547
   61      -11.649996    -11.649996
   62      -11.525435    -11.525435
   63      -11.354739    -11.354739
   64      -11.161904    -11.161904
   65      -11.048417    -11.048418
   66      -10.964460    -10.964460
   67      -10.791669    -10.791669
   68      -10.690054    -10.690054
   69      -10.488723    -10.488723
   70      -10.426255    -10.426255
   71      -10.120785    -10.120785
   72      -10.065073    -10.065073
   73       -9.864289     -9.864289
   74       -9.726085     -9.726085
   75       -9.679071     -9.679071
   76       -9.593445     -9.593445
   77       -9.329682     -9.329682
   78       -9.095038     -9.095038
   79       -8.691431     -8.691431
   80       -8.327020     -8.327020
   81       -7.434394     -7.434394
   82       -7.253923     -7.253923
   83       -7.107686     -7.107686
   84       -5.705172     -5.705172
   85       -5.334199     -5.334199
   86       -4.908642     -4.908642
   87       -4.414547     -4.414547
   88       -4.109070     -4.109070
   89       -4.054921     -4.054921
   90       -3.909728     -3.909728
   91       -3.858165     -3.858165
   92       -3.465340     -3.465340
   93       -3.311573     -3.311573
   94       -3.149962     -3.149962
   95       -2.940403     -2.940403
   96       -2.666549     -2.666549
   97       -2.072158     -2.072157
   98       -1.734422     -1.734422
   99       -1.652740     -1.652740
  100       -1.497389     -1.497388
  101       -1.297718     -1.297718
  102       -1.167531     -1.167532
  103       -1.077664     -1.077663
  104       -0.978726     -0.978725
  105       -0.957211     -0.957211
  106       -0.681812     -0.681811
  107       -0.665736     -0.665735
  108       -0.651572     -0.651571
  109       -0.557337     -0.557336
  110       -0.434229     -0.434229
  111       -0.396028     -0.396028
  112       -0.345058     -0.345055
  113       -0.294928     -0.294929
  114       -0.150697     -0.150697
  115        0.006543      0.006543
  116        0.009421      0.009421
  117        0.068028      0.068029
  118        0.121481      0.121483
  119        0.193106      0.193106
  120        0.220921      0.220922
  121        0.287771      0.287773
  122        0.341738      0.341738
  123        0.424318      0.424317
  124        0.463136      0.463136
  125        0.567606      0.567607
  126        0.616480      0.616480
  127        0.644822      0.644822
  128        0.698531      0.698530
