       N       E                     dE             d eps       ncg     rms          rms(c)
DAV:   1     0.909654816045E+03    0.90965E+03   -0.58807E+04   768   0.974E+02
DAV:   2    -0.674384037630E+02   -0.97709E+03   -0.97065E+03  1024   0.160E+02
DAV:   3    -0.393189915364E+03   -0.32575E+03   -0.32529E+03   832   0.852E+01
DAV:   4    -0.412305395162E+03   -0.19115E+02   -0.19091E+02   768   0.258E+01
DAV:   5    -0.412499395777E+03   -0.19400E+00   -0.19392E+00   896   0.293E+00    0.576E+01
DAV:   6    -0.394249049349E+03    0.18250E+02   -0.39171E+02   512   0.240E+01    0.392E+01
DAV:   7    -0.383295714247E+03    0.10953E+02   -0.24138E+01   768   0.215E+01    0.239E+01
DAV:   8    -0.378852229390E+03    0.44435E+01   -0.17390E+01   768   0.104E+01    0.985E+00
DAV:   9    -0.377623361959E+03    0.12289E+01   -0.48581E+00   768   0.490E+00    0.368E+00
DAV:  10    -0.377571398803E+03    0.51963E-01   -0.44589E-01   768   0.162E+00    0.258E+00
DAV:  11    -0.377429747319E+03    0.14165E+00   -0.16868E-01   768   0.995E-01    0.103E+00
DAV:  12    -0.377360586699E+03    0.69161E-01   -0.63880E-02   768   0.663E-01    0.644E-01
DAV:  13    -0.377342534311E+03    0.18052E-01   -0.22276E-02   768   0.404E-01    0.419E-01
DAV:  14    -0.377331288633E+03    0.11246E-01   -0.14092E-02   768   0.312E-01    0.281E-01
DAV:  15    -0.377331626260E+03   -0.33763E-03   -0.43675E-03   768   0.188E-01    0.234E-01
DAV:  16    -0.377343742009E+03   -0.12116E-01   -0.38287E-03   768   0.171E-01    0.103E-01
DAV:  17    -0.377348057489E+03   -0.43155E-02   -0.80184E-04   768   0.838E-02    0.771E-02
DAV:  18    -0.377353368634E+03   -0.53111E-02   -0.45791E-04   768   0.646E-02    0.623E-02
DAV:  19    -0.377357008447E+03   -0.36398E-02   -0.26540E-04   768   0.464E-02    0.324E-02
DAV:  20    -0.377358876332E+03   -0.18679E-02   -0.70685E-05   768   0.252E-02    0.215E-02
DAV:  21    -0.377360399561E+03   -0.15232E-02   -0.45148E-05   768   0.189E-02    0.128E-02
DAV:  22    -0.377361289982E+03   -0.89042E-03   -0.21042E-05   768   0.114E-02    0.101E-02
DAV:  23    -0.377361840972E+03   -0.55099E-03   -0.10298E-05   640   0.751E-03    0.599E-03
DAV:  24    -0.377362162642E+03   -0.32167E-03   -0.75214E-06   640   0.560E-03    0.290E-03
DAV:  25    -0.377362352590E+03   -0.18995E-03   -0.31960E-06   640   0.348E-03    0.186E-03
DAV:  26    -0.377362459077E+03   -0.10649E-03   -0.18232E-06   640   0.244E-03    0.129E-03
DAV:  27    -0.377362505873E+03   -0.46796E-04   -0.52509E-07   640   0.145E-03    0.840E-04
DAV:  28    -0.377362532621E+03   -0.26748E-04   -0.19801E-07   640   0.973E-04    0.575E-04
DAV:  29    -0.377362549228E+03   -0.16608E-04   -0.81945E-08   640   0.752E-04    0.382E-04
DAV:  30    -0.377362558906E+03   -0.96784E-05    0.30938E-09   640   0.584E-04
   1 F= -.37736256E+03 E0= -.37736256E+03  d E =-.367559E-63  mag=     0.0000
