<?xml version="1.0" encoding="ISO-8859-1"?>
<modeling>
 <generator>
  <i name="program" type="string">vasp </i>
  <i name="version" type="string">5.3.5  </i>
  <i name="subversion" type="string">31Mar14 (build Apr 08 2014 12:00:03) complex                          parallel </i>
  <i name="platform" type="string">NSC-NSCPATCH-BUILD02 </i>
  <i name="date" type="string">2017 03 15 </i>
  <i name="time" type="string">18:47:26 </i>
 </generator>
 <incar>
  <i type="string" name="SYSTEM"> c2_oh2_ruthenium_mol</i>
  <i type="int" name="ISTART">     0</i>
  <i type="string" name="PREC">accurate</i>
  <i type="int" name="IALGO">    38</i>
  <i type="logical" name="ADDGRID"> T  </i>
  <i type="int" name="ISPIN">     2</i>
  <i name="BMIX">      2.00000000</i>
  <i type="int" name="ICHARG">     2</i>
  <i name="EDIFF">      0.00001000</i>
  <i name="EDIFFG">     -0.01000000</i>
  <i name="ENCUT">    700.00000000</i>
  <i name="POTIM">      0.50000000</i>
  <i name="NUPDOWN">      0.00000000</i>
  <i name="NELECT">    166.00000000</i>
  <i type="string" name="LREAL"> Auto</i>
  <i name="TIME">      0.05000000</i>
  <i type="int" name="ISMEAR">     0</i>
  <i name="SIGMA">      0.01000000</i>
  <i type="int" name="ICORELEVEL">     2</i>
  <i type="int" name="CLNT">     1</i>
  <i type="int" name="CLN">     1</i>
  <i type="int" name="INCAR     ">     0</i>
  <i name="CLZ">      0.50000000</i>
 </incar>
 <kpoints>
  <generation param="Monkhorst-Pack">
   <v type="int" name="divisions">       1        1        1 </v>
   <v name="usershift">      0.00000000       0.00000000       0.00000000 </v>
   <v name="genvec1">      1.00000000       0.00000000       0.00000000 </v>
   <v name="genvec2">      0.00000000       1.00000000       0.00000000 </v>
   <v name="genvec3">      0.00000000       0.00000000       1.00000000 </v>
   <v name="shift">      0.00000000       0.00000000       0.00000000 </v>
  </generation>
  <varray name="kpointlist" >
   <v>       0.00000000       0.00000000       0.00000000 </v>
  </varray>
  <varray name="weights" >
   <v>       1.00000000 </v>
  </varray>
 </kpoints>
 <parameters>
  <separator name="general" >
   <i type="string" name="SYSTEM">c2_oh2_ruthenium_mol</i>
   <i type="logical" name="LCOMPAT"> F  </i>
  </separator>
  <separator name="electronic" >
   <i type="string" name="PREC">accura</i>
   <i name="ENMAX">    700.00000000</i>
   <i name="ENAUG">    946.76800000</i>
   <i name="EDIFF">      0.00001000</i>
   <i type="int" name="IALGO">    38</i>
   <i type="int" name="IWAVPR">    10</i>
   <i type="int" name="NBANDS">   128</i>
   <i name="NELECT">    166.00000000</i>
   <i type="int" name="TURBO">     0</i>
   <i type="int" name="IRESTART">     0</i>
   <i type="int" name="NREBOOT">     0</i>
   <i type="int" name="NMIN">     0</i>
   <i name="EREF">      0.00000000</i>
   <separator name="electronic smearing" >
    <i type="int" name="ISMEAR">     0</i>
    <i name="SIGMA">      0.01000000</i>
    <i name="KSPACING">      0.50000000</i>
    <i type="logical" name="KGAMMA"> T  </i>
   </separator>
   <separator name="electronic projectors" >
    <i type="logical" name="LREAL"> T  </i>
    <v name="ROPT">     -0.00025000     -0.00025000     -0.00025000     -0.00025000     -0.00025000     -0.00025000</v>
    <i type="int" name="LMAXPAW">  -100</i>
    <i type="int" name="LMAXMIX">     2</i>
    <i type="logical" name="NLSPLINE"> F  </i>
   </separator>
   <separator name="electronic startup" >
    <i type="int" name="ISTART">     0</i>
    <i type="int" name="ICHARG">     2</i>
    <i type="int" name="INIWAV">     1</i>
   </separator>
   <separator name="electronic spin" >
    <i type="int" name="ISPIN">     2</i>
    <i type="logical" name="LNONCOLLINEAR"> F  </i>
    <v name="MAGMOM">      0.00000000      0.00000000      0.00000000      0.00000000      0.00000000      0.00000000      0.00000000      0.00000000      0.00000000      0.00000000      0.00000000      0.00000000      0.00000000      0.00000000      0.00000000      0.00000000      0.00000000      0.00000000      0.00000000      0.00000000
      0.00000000      0.00000000      0.00000000      0.00000000      0.00000000      0.00000000      0.00000000      0.00000000      0.00000000      0.00000000      0.00000000      0.00000000      0.00000000      0.00000000      0.00000000      0.00000000      0.00000000      0.00000000      0.00000000      0.00000000
      0.00000000      0.00000000      0.00000000      0.00000000      0.00000000      0.00000000      0.00000000      0.00000000      0.00000000      0.00000000      0.00000000      0.00000000      0.00000000      0.00000000      0.00000000</v>
    <i name="NUPDOWN">      0.00000000</i>
    <i type="logical" name="LSORBIT"> F  </i>
    <v name="SAXIS">      0.00000000      0.00000000      1.00000000</v>
    <i type="logical" name="LSPIRAL"> F  </i>
    <v name="QSPIRAL">      0.00000000      0.00000000      0.00000000</v>
    <i type="logical" name="LZEROZ"> F  </i>
   </separator>
   <separator name="electronic exchange-correlation" >
    <i type="logical" name="LASPH"> F  </i>
    <i type="logical" name="LMETAGGA"> F  </i>
   </separator>
   <separator name="electronic convergence" >
    <i type="int" name="NELM">    60</i>
    <i type="int" name="NELMDL">    -5</i>
    <i type="int" name="NELMIN">     2</i>
    <i name="ENINI">    700.00000000</i>
    <separator name="electronic convergence detail" >
     <i type="logical" name="LDIAG"> T  </i>
     <i type="logical" name="LSUBROT"> F  </i>
     <i name="WEIMIN">      0.00000000</i>
     <i name="EBREAK">      0.00000002</i>
     <i name="DEPER">      0.30000000</i>
     <i type="int" name="NRMM">     4</i>
     <i name="TIME">      0.05000000</i>
    </separator>
   </separator>
   <separator name="electronic mixer" >
    <i name="AMIX">      0.40000000</i>
    <i name="BMIX">      2.00000000</i>
    <i name="AMIN">      0.10000000</i>
    <i name="AMIX_MAG">      1.60000000</i>
    <i name="BMIX_MAG">      2.00000000</i>
    <separator name="electronic mixer details" >
     <i type="int" name="IMIX">     4</i>
     <i type="int" name="MAXMIX">   -45</i>
     <i name="WC">    100.00000000</i>
     <i type="int" name="INIMIX">     1</i>
     <i type="int" name="MIXPRE">     1</i>
     <i type="int" name="MREMOVE">     5</i>
    </separator>
   </separator>
   <separator name="electronic dipolcorrection" >
    <i type="logical" name="LDIPOL"> F  </i>
    <i type="logical" name="LMONO"> F  </i>
    <i type="int" name="IDIPOL">     0</i>
    <i name="EPSILON">      1.00000000</i>
    <v name="DIPOL">   -100.00000000   -100.00000000   -100.00000000</v>
    <i name="EFIELD">      0.00000000</i>
   </separator>
  </separator>
  <separator name="grids" >
   <i type="int" name="NGX">   180</i>
   <i type="int" name="NGY">   180</i>
   <i type="int" name="NGZ">   180</i>
   <i type="int" name="NGXF">   360</i>
   <i type="int" name="NGYF">   360</i>
   <i type="int" name="NGZF">   360</i>
   <i type="logical" name="ADDGRID"> T  </i>
  </separator>
  <separator name="ionic" >
   <i type="int" name="NSW">     0</i>
   <i type="int" name="IBRION">    -1</i>
   <i type="int" name="ISIF">     2</i>
   <i name="PSTRESS">      0.00000000</i>
   <i name="EDIFFG">     -0.01000000</i>
   <i type="int" name="NFREE">     0</i>
   <i name="POTIM">      0.50000000</i>
   <i name="SMASS">     -3.00000000</i>
   <i name="SCALEE">      1.00000000</i>
  </separator>
  <separator name="ionic md" >
   <i name="TEBEG">      0.00010000</i>
   <i name="TEEND">      0.00010000</i>
   <i type="int" name="NBLOCK">     1</i>
   <i type="int" name="KBLOCK">     1</i>
   <i type="int" name="NPACO">   256</i>
   <i name="APACO">     16.00000000</i>
  </separator>
  <separator name="symmetry" >
   <i type="int" name="ISYM">     2</i>
   <i name="SYMPREC">      0.00001000</i>
  </separator>
  <separator name="dos" >
   <i type="logical" name="LORBIT"> F  </i>
   <v name="RWIGS">     -1.00000000     -1.00000000     -1.00000000     -1.00000000     -1.00000000     -1.00000000</v>
   <i type="int" name="NEDOS">   301</i>
   <i name="EMIN">     10.00000000</i>
   <i name="EMAX">    -10.00000000</i>
   <i name="EFERMI">      0.00000000</i>
  </separator>
  <separator name="writing" >
   <i type="int" name="NWRITE">     2</i>
   <i type="logical" name="LWAVE"> T  </i>
   <i type="logical" name="LCHARG"> T  </i>
   <i type="logical" name="LPARD"> F  </i>
   <i type="logical" name="LVTOT"> F  </i>
   <i type="logical" name="LVHAR"> F  </i>
   <i type="logical" name="LELF"> F  </i>
   <i type="logical" name="LOPTICS"> F  </i>
   <v name="STM">      0.00000000      0.00000000      0.00000000      0.00000000      0.00000000      0.00000000      0.00000000</v>
  </separator>
  <separator name="performance" >
   <i type="int" name="NPAR">    64</i>
   <i type="int" name="NSIM">     4</i>
   <i type="int" name="NBLK">    -1</i>
   <i type="logical" name="LPLANE"> T  </i>
   <i type="logical" name="LSCALAPACK"> T  </i>
   <i type="logical" name="LSCAAWARE"> F  </i>
   <i type="logical" name="LSCALU"> F  </i>
   <i type="logical" name="LASYNC"> F  </i>
   <i type="logical" name="LORBITALREAL"> F  </i>
  </separator>
  <separator name="miscellaneous" >
   <i type="int" name="IDIOT">     3</i>
   <i type="logical" name="LMUSIC"> F  </i>
   <v name="POMASS">     12.01100000     12.01100000      1.00000000     14.00100000     16.00000000    101.07000000</v>
   <v name="DARWINR">      0.00000000      0.00000000      0.00000000      0.00000000      0.00000000      0.00000000</v>
   <v name="DARWINV">      1.00000000      1.00000000      1.00000000      1.00000000      1.00000000      1.00000000</v>
   <i type="logical" name="LCORR"> T  </i>
  </separator>
  <i type="logical" name="GGA_COMPAT"> T  </i>
  <i type="logical" name="LBERRY"> F  </i>
  <i type="int" name="ICORELEVEL">     2</i>
  <i type="int" name="CLNT">     1</i>
  <i type="int" name="CLN">     1</i>
  <i type="int" name="CLL">     0</i>
  <i name="CLZ">      0.50000000</i>
  <i type="logical" name="LDAU"> F  </i>
  <i type="int" name="I_CONSTRAINED_M">     0</i>
  <separator name="electronic exchange-correlation" >
   <i type="string" name="GGA">--</i>
   <i type="int" name="VOSKOWN">     0</i>
   <i type="logical" name="LHFCALC"> F  </i>
   <i type="string" name="PRECFOCK"></i>
   <i type="logical" name="LSYMGRAD"> F  </i>
   <i type="logical" name="LHFONE"> F  </i>
   <i type="logical" name="LRHFCALC"> F  </i>
   <i type="logical" name="LTHOMAS"> F  </i>
   <i type="logical" name="LMODELHF"> F  </i>
   <i name="ENCUT4O">     -1.00000000</i>
   <i type="int" name="EXXOEP">     0</i>
   <i type="int" name="FOURORBIT">     0</i>
   <i name="AEXX">      0.00000000</i>
   <i name="HFALPHA">      0.00000000</i>
   <i name="MCALPHA">      0.00000000</i>
   <i name="ALDAX">      1.00000000</i>
   <i name="AGGAX">      1.00000000</i>
   <i name="ALDAC">      1.00000000</i>
   <i name="AGGAC">      1.00000000</i>
   <i type="int" name="NKREDX">     1</i>
   <i type="int" name="NKREDY">     1</i>
   <i type="int" name="NKREDZ">     1</i>
   <i type="logical" name="SHIFTRED"> F  </i>
   <i type="logical" name="ODDONLY"> F  </i>
   <i type="logical" name="EVENONLY"> F  </i>
   <i type="int" name="LMAXFOCK">     0</i>
   <i type="int" name="NMAXFOCKAE">     0</i>
   <i type="logical" name="LFOCKAEDFT"> F  </i>
   <i name="HFSCREEN">      0.00000000</i>
   <i name="HFSCREENC">      0.00000000</i>
   <i type="int" name="NBANDSGWLOW">     0</i>
  </separator>
  <separator name="vdW DFT" >
   <i type="logical" name="LUSE_VDW"> F  </i>
   <i name="Zab_VDW">     -0.84910000</i>
   <i name="PARAM1">      0.12340000</i>
   <i name="PARAM2">      1.00000000</i>
   <i name="PARAM3">      0.00000000</i>
  </separator>
  <separator name="model GW" >
   <i type="int" name="MODEL_GW">     0</i>
   <i name="MODEL_EPS0">     87.27272727</i>
   <i name="MODEL_ALPHA">      1.00000000</i>
  </separator>
  <separator name="linear response parameters" >
   <i type="logical" name="LEPSILON"> F  </i>
   <i type="logical" name="LRPA"> F  </i>
   <i type="logical" name="LNABLA"> F  </i>
   <i type="logical" name="LVEL"> F  </i>
   <i type="int" name="KINTER">     0</i>
   <i name="CSHIFT">      0.10000000</i>
   <i name="OMEGAMAX">     -1.00000000</i>
   <i name="DEG_THRESHOLD">      0.00200000</i>
  </separator>
  <separator name="orbital magnetization" >
   <i type="logical" name="NUCIND"> F  </i>
   <v name="MAGPOS">      0.00000000      0.00000000      0.00000000</v>
   <i type="logical" name="LNICSALL"> T  </i>
   <i type="logical" name="ORBITALMAG"> F  </i>
   <i type="logical" name="LMAGBLOCH"> F  </i>
   <i type="logical" name="LCHIMAG"> F  </i>
   <i type="logical" name="LGAUGE"> T  </i>
   <i type="int" name="MAGATOM">     0</i>
   <v name="MAGDIPOL">      0.00000000      0.00000000      0.00000000</v>
   <v name="AVECCONST">      0.00000000      0.00000000      0.00000000</v>
  </separator>
  <separator name="response functions" >
   <i type="logical" name="LADDER"> F  </i>
   <i type="logical" name="LFXC"> F  </i>
   <i type="logical" name="LHARTREE"> T  </i>
   <i type="int" name="IBSE">     0</i>
   <i type="logical" name="LTCTE"> F  </i>
   <i type="logical" name="LTETE"> F  </i>
   <i type="logical" name="LTRIPLET"> F  </i>
   <i type="logical" name="LFXCEPS"> F  </i>
   <i type="logical" name="LFXHEG"> F  </i>
   <i type="logical" name="L2ORDER"> F  </i>
   <i type="logical" name="LUSEW"> F  </i>
   <i name="ENCUTGW">     -2.00000000</i>
   <i name="ENCUTGWSOFT">     -2.00000000</i>
   <i name="ENCUTLF">     -1.00000000</i>
   <i type="int" name="LMAXMP2">    -1</i>
   <i name="SCISSOR">      0.00000000</i>
   <i type="int" name="NOMEGA">     0</i>
   <i type="int" name="NOMEGAR">     0</i>
   <i type="int" name="NBANDSGW">    -1</i>
   <i type="int" name="NBANDSO">    -1</i>
   <i type="int" name="NBANDSV">    -1</i>
   <i type="int" name="NELM">     1</i>
   <i type="int" name="DIM">     3</i>
   <i type="int" name="ANTIRES">     0</i>
   <i name="OMEGAMAX">    -30.00000000</i>
   <i name="OMEGAMIN">    -30.00000000</i>
   <i name="OMEGATL">   -200.00000000</i>
   <i type="int" name="OMEGAGRID">     0</i>
   <i name="CSHIFT">     -0.10000000</i>
   <i type="logical" name="SELFENERGY"> F  </i>
   <i type="logical" name="LSPECTRAL"> F  </i>
   <i type="logical" name="ODDONLYGW"> F  </i>
   <i type="logical" name="EVENONLYGW"> F  </i>
   <i type="int" name="NKREDLFX">     1</i>
   <i type="int" name="NKREDLFY">     1</i>
   <i type="int" name="NKREDLFZ">     1</i>
   <i type="int" name="MAXMEM">  1800</i>
   <i type="int" name="TELESCOPE">     0</i>
   <i type="int" name="TAUPAR">     1</i>
  </separator>
  <separator name="External order field" >
   <i name="OFIELD_KAPPA">      0.00000000</i>
   <v name="OFIELD_K">      0.00000000      0.00000000      0.00000000</v>
   <i name="OFIELD_Q6_NEAR">      0.00000000</i>
   <i name="OFIELD_Q6_FAR">      0.00000000</i>
   <i name="OFIELD_A">      0.00000000</i>
  </separator>
 </parameters>
 <atominfo>
  <atoms>      55 </atoms>
  <types>       6 </types>
  <array name="atoms" >
   <dimension dim="1">ion</dimension>
   <field type="string">element</field>
   <field type="int">atomtype</field>
   <set>
    <rc><c>C </c><c>   1</c></rc>
    <rc><c>C </c><c>   2</c></rc>
    <rc><c>C </c><c>   2</c></rc>
    <rc><c>C </c><c>   2</c></rc>
    <rc><c>C </c><c>   2</c></rc>
    <rc><c>C </c><c>   2</c></rc>
    <rc><c>C </c><c>   2</c></rc>
    <rc><c>C </c><c>   2</c></rc>
    <rc><c>C </c><c>   2</c></rc>
    <rc><c>C </c><c>   2</c></rc>
    <rc><c>C </c><c>   2</c></rc>
    <rc><c>C </c><c>   2</c></rc>
    <rc><c>C </c><c>   2</c></rc>
    <rc><c>C </c><c>   2</c></rc>
    <rc><c>C </c><c>   2</c></rc>
    <rc><c>C </c><c>   2</c></rc>
    <rc><c>C </c><c>   2</c></rc>
    <rc><c>C </c><c>   2</c></rc>
    <rc><c>C </c><c>   2</c></rc>
    <rc><c>C </c><c>   2</c></rc>
    <rc><c>C </c><c>   2</c></rc>
    <rc><c>C </c><c>   2</c></rc>
    <rc><c>C </c><c>   2</c></rc>
    <rc><c>C </c><c>   2</c></rc>
    <rc><c>C </c><c>   2</c></rc>
    <rc><c>H </c><c>   3</c></rc>
    <rc><c>H </c><c>   3</c></rc>
    <rc><c>H </c><c>   3</c></rc>
    <rc><c>H </c><c>   3</c></rc>
    <rc><c>H </c><c>   3</c></rc>
    <rc><c>H </c><c>   3</c></rc>
    <rc><c>H </c><c>   3</c></rc>
    <rc><c>H </c><c>   3</c></rc>
    <rc><c>H </c><c>   3</c></rc>
    <rc><c>H </c><c>   3</c></rc>
    <rc><c>H </c><c>   3</c></rc>
    <rc><c>H </c><c>   3</c></rc>
    <rc><c>H </c><c>   3</c></rc>
    <rc><c>H </c><c>   3</c></rc>
    <rc><c>H </c><c>   3</c></rc>
    <rc><c>H </c><c>   3</c></rc>
    <rc><c>H </c><c>   3</c></rc>
    <rc><c>H </c><c>   3</c></rc>
    <rc><c>H </c><c>   3</c></rc>
    <rc><c>H </c><c>   3</c></rc>
    <rc><c>H </c><c>   3</c></rc>
    <rc><c>H </c><c>   3</c></rc>
    <rc><c>H </c><c>   3</c></rc>
    <rc><c>N </c><c>   4</c></rc>
    <rc><c>N </c><c>   4</c></rc>
    <rc><c>N </c><c>   4</c></rc>
    <rc><c>N </c><c>   4</c></rc>
    <rc><c>N </c><c>   4</c></rc>
    <rc><c>O </c><c>   5</c></rc>
    <rc><c>Ru</c><c>   6</c></rc>
   </set>
  </array>
  <array name="atomtypes" >
   <dimension dim="1">type</dimension>
   <field type="int">atomspertype</field>
   <field type="string">element</field>
   <field>mass</field>
   <field>valence</field>
   <field type="string">pseudopotential</field>
   <set>
    <rc><c>   1</c><c>C </c><c>     12.01100000</c><c>      4.50000000</c><c>  PAW_PBE C_h 06Feb2004                 </c></rc>
    <rc><c>  24</c><c>C </c><c>     12.01100000</c><c>      4.00000000</c><c>  PAW_PBE C_h 06Feb2004                 </c></rc>
    <rc><c>  23</c><c>H </c><c>      1.00000000</c><c>      1.00000000</c><c>  PAW_PBE H 15Jun2001                   </c></rc>
    <rc><c>   5</c><c>N </c><c>     14.00100000</c><c>      5.00000000</c><c>  PAW_PBE N_h 06Feb2004                 </c></rc>
    <rc><c>   1</c><c>O </c><c>     16.00000000</c><c>      6.00000000</c><c>  PAW_PBE O_h 06Feb2004                 </c></rc>
    <rc><c>   1</c><c>Ru</c><c>    101.07000000</c><c>     14.00000000</c><c>  PAW_PBE Ru_pv 28Jan2005               </c></rc>
   </set>
  </array>
 </atominfo>
 <structure name="initialpos" >
  <crystal>
   <varray name="basis" >
    <v>      20.00000000       0.00000000       0.00000000 </v>
    <v>       0.00000000      20.00000000       0.00000000 </v>
    <v>       0.00000000       0.00000000      20.00000000 </v>
   </varray>
   <i name="volume">   8000.00000000 </i>
   <varray name="rec_basis" >
    <v>       0.05000000       0.00000000       0.00000000 </v>
    <v>       0.00000000       0.05000000       0.00000000 </v>
    <v>       0.00000000       0.00000000       0.05000000 </v>
   </varray>
  </crystal>
  <varray name="positions" >
   <v>       0.70843899       0.47974495       0.57314689 </v>
   <v>       0.43793752       0.56561110       0.32757008 </v>
   <v>       0.45581208       0.52423376       0.38051465 </v>
   <v>       0.47372925       0.61530131       0.44986522 </v>
   <v>       0.45595175       0.65963312       0.39935201 </v>
   <v>       0.43785737       0.63472201       0.33675972 </v>
   <v>       0.52307882       0.32955005       0.67474498 </v>
   <v>       0.49710163       0.37190466       0.62618823 </v>
   <v>       0.60227374       0.41933300       0.60593616 </v>
   <v>       0.63096398       0.37761922       0.65422416 </v>
   <v>       0.73964927       0.52855915       0.53463181 </v>
   <v>       0.70082162       0.56612858       0.49044049 </v>
   <v>       0.63257913       0.55363620       0.48652424 </v>
   <v>       0.63952130       0.46927713       0.56732841 </v>
   <v>       0.29334713       0.47671938       0.56830116 </v>
   <v>       0.59134754       0.33224398       0.68903016 </v>
   <v>       0.36211554       0.48866484       0.56417415 </v>
   <v>       0.40790931       0.62211625       0.69058213 </v>
   <v>       0.47619960       0.62606623       0.67660612 </v>
   <v>       0.50295190       0.58590820       0.62668073 </v>
   <v>       0.39825425       0.53800137       0.60426081 </v>
   <v>       0.36904589       0.57756069       0.65398228 </v>
   <v>       0.37289802       0.40579857       0.48223443 </v>
   <v>       0.30486503       0.39173492       0.48443166 </v>
   <v>       0.26422003       0.42785518       0.52821594 </v>
   <v>       0.48989745       0.29510618       0.70074864 </v>
   <v>       0.61334240       0.29968355       0.72673159 </v>
   <v>       0.68424189       0.38076917       0.66478776 </v>
   <v>       0.54225374       0.36233861       0.46129841 </v>
   <v>       0.31579090       0.57306911       0.66420366 </v>
   <v>       0.44416348       0.37118871       0.61364770 </v>
   <v>       0.42392665       0.66833230       0.29622671 </v>
   <v>       0.45642762       0.71313270       0.40950260 </v>
   <v>       0.48809132       0.63358802       0.49907234 </v>
   <v>       0.56912778       0.41808713       0.41480476 </v>
   <v>       0.73767440       0.44963919       0.60776512 </v>
   <v>       0.72277620       0.60481012       0.45904817 </v>
   <v>       0.45570253       0.47012894       0.37468790 </v>
   <v>       0.40614333       0.37888556       0.44852541 </v>
   <v>       0.28443799       0.35306162       0.45202062 </v>
   <v>       0.79326502       0.53703787       0.53892527 </v>
   <v>       0.55589708       0.58769132       0.61440612 </v>
   <v>       0.42412006       0.54328620       0.27986105 </v>
   <v>       0.50894741       0.65984570       0.70400156 </v>
   <v>       0.26265982       0.50568523       0.60265428 </v>
   <v>       0.21072272       0.41813760       0.53105039 </v>
   <v>       0.60090654       0.58197914       0.45254259 </v>
   <v>       0.38544357       0.65296704       0.72941133 </v>
   <v>       0.47424490       0.54794204       0.44140236 </v>
   <v>       0.40180479       0.45306079       0.52108436 </v>
   <v>       0.53520702       0.41608490       0.59173240 </v>
   <v>       0.46544808       0.54254992       0.59041194 </v>
   <v>       0.60138410       0.50650621       0.52397638 </v>
   <v>       0.53073984       0.40562607       0.44215451 </v>
   <v>       0.50088568       0.48087016       0.51934246 </v>
  </varray>
  <varray name="selective"  type="logical" >
   <v type="logical" >  T  T  T </v>
   <v type="logical" >  T  T  T </v>
   <v type="logical" >  T  T  T </v>
   <v type="logical" >  T  T  T </v>
   <v type="logical" >  T  T  T </v>
   <v type="logical" >  T  T  T </v>
   <v type="logical" >  T  T  T </v>
   <v type="logical" >  T  T  T </v>
   <v type="logical" >  T  T  T </v>
   <v type="logical" >  T  T  T </v>
   <v type="logical" >  T  T  T </v>
   <v type="logical" >  T  T  T </v>
   <v type="logical" >  T  T  T </v>
   <v type="logical" >  T  T  T </v>
   <v type="logical" >  T  T  T </v>
   <v type="logical" >  T  T  T </v>
   <v type="logical" >  T  T  T </v>
   <v type="logical" >  T  T  T </v>
   <v type="logical" >  T  T  T </v>
   <v type="logical" >  T  T  T </v>
   <v type="logical" >  T  T  T </v>
   <v type="logical" >  T  T  T </v>
   <v type="logical" >  T  T  T </v>
   <v type="logical" >  T  T  T </v>
   <v type="logical" >  T  T  T </v>
   <v type="logical" >  T  T  T </v>
   <v type="logical" >  T  T  T </v>
   <v type="logical" >  T  T  T </v>
   <v type="logical" >  T  T  T </v>
   <v type="logical" >  T  T  T </v>
   <v type="logical" >  T  T  T </v>
   <v type="logical" >  T  T  T </v>
   <v type="logical" >  T  T  T </v>
   <v type="logical" >  T  T  T </v>
   <v type="logical" >  T  T  T </v>
   <v type="logical" >  T  T  T </v>
   <v type="logical" >  T  T  T </v>
   <v type="logical" >  T  T  T </v>
   <v type="logical" >  T  T  T </v>
   <v type="logical" >  T  T  T </v>
   <v type="logical" >  T  T  T </v>
   <v type="logical" >  T  T  T </v>
   <v type="logical" >  T  T  T </v>
   <v type="logical" >  T  T  T </v>
   <v type="logical" >  T  T  T </v>
   <v type="logical" >  T  T  T </v>
   <v type="logical" >  T  T  T </v>
   <v type="logical" >  T  T  T </v>
   <v type="logical" >  T  T  T </v>
   <v type="logical" >  T  T  T </v>
   <v type="logical" >  T  T  T </v>
   <v type="logical" >  T  T  T </v>
   <v type="logical" >  T  T  T </v>
   <v type="logical" >  T  T  T </v>
   <v type="logical" >  T  T  T </v>
  </varray>
  <nose>
   <v>      -3.00000000       0.00000000       0.00010000       0.00010000 </v>
  </nose>
 </structure>
 <calculation>
  <scstep>
   <time name="dav">   14.80   15.71</time>
   <time name="total">   22.33   23.29</time>
   <energy>
    <i name="alphaZ">     12.91687988 </i>
    <i name="ewald">  23284.05024387 </i>
    <i name="hartreedc"> -28886.33008695 </i>
    <i name="XCdc">    400.93968138 </i>
    <i name="pawpsdc">   5890.45591622 </i>
    <i name="pawaedc">  -5710.10246236 </i>
    <i name="eentropy">     -0.00002859 </i>
    <i name="bandstr">  -1675.67523862 </i>
    <i name="atom">   7593.39991119 </i>
    <i name="e_fr_energy">    909.65481604 </i>
    <i name="e_wo_entrp">    909.65484463 </i>
    <i name="e_0_energy">    909.65483034 </i>
   </energy>
  </scstep>
  <scstep>
   <time name="dav">   19.20   20.26</time>
   <time name="total">   19.21   20.27</time>
   <energy>
    <i name="e_fr_energy">    -67.43840376 </i>
    <i name="e_wo_entrp">    -67.43840376 </i>
    <i name="e_0_energy">    -67.43840376 </i>
   </energy>
  </scstep>
  <scstep>
   <time name="dav">   15.92   16.89</time>
   <time name="total">   15.93   16.90</time>
   <energy>
    <i name="e_fr_energy">   -393.18991536 </i>
    <i name="e_wo_entrp">   -393.18991536 </i>
    <i name="e_0_energy">   -393.18991536 </i>
   </energy>
  </scstep>
  <scstep>
   <time name="dav">   14.85   15.77</time>
   <time name="total">   14.86   15.78</time>
   <energy>
    <i name="e_fr_energy">   -412.30539516 </i>
    <i name="e_wo_entrp">   -412.30539516 </i>
    <i name="e_0_energy">   -412.30539516 </i>
   </energy>
  </scstep>
  <scstep>
   <time name="dav">   17.05   18.18</time>
   <time name="total">   22.29   23.46</time>
   <energy>
    <i name="e_fr_energy">   -412.49939578 </i>
    <i name="e_wo_entrp">   -412.49939578 </i>
    <i name="e_0_energy">   -412.49939578 </i>
   </energy>
  </scstep>
  <scstep>
   <time name="dav">   10.80   11.45</time>
   <time name="total">   23.50   24.20</time>
   <energy>
    <i name="e_fr_energy">   -394.24904935 </i>
    <i name="e_wo_entrp">   -394.24904935 </i>
    <i name="e_0_energy">   -394.24904935 </i>
   </energy>
  </scstep>
  <scstep>
   <time name="dav">   15.15   16.50</time>
   <time name="total">   27.94   29.32</time>
   <energy>
    <i name="e_fr_energy">   -383.29571425 </i>
    <i name="e_wo_entrp">   -383.29571425 </i>
    <i name="e_0_energy">   -383.29571425 </i>
   </energy>
  </scstep>
  <scstep>
   <time name="dav">   15.17   16.48</time>
   <time name="total">   27.94   29.29</time>
   <energy>
    <i name="e_fr_energy">   -378.85222939 </i>
    <i name="e_wo_entrp">   -378.85222939 </i>
    <i name="e_0_energy">   -378.85222939 </i>
   </energy>
  </scstep>
  <scstep>
   <time name="dav">   15.18   16.60</time>
   <time name="total">   27.85   29.29</time>
   <energy>
    <i name="e_fr_energy">   -377.62336196 </i>
    <i name="e_wo_entrp">   -377.62336196 </i>
    <i name="e_0_energy">   -377.62336196 </i>
   </energy>
  </scstep>
  <scstep>
   <time name="dav">   15.12   16.45</time>
   <time name="total">   27.91   29.26</time>
   <energy>
    <i name="e_fr_energy">   -377.57139880 </i>
    <i name="e_wo_entrp">   -377.57139880 </i>
    <i name="e_0_energy">   -377.57139880 </i>
   </energy>
  </scstep>
  <scstep>
   <time name="dav">   15.05   16.33</time>
   <time name="total">   27.81   29.12</time>
   <energy>
    <i name="e_fr_energy">   -377.42974732 </i>
    <i name="e_wo_entrp">   -377.42974732 </i>
    <i name="e_0_energy">   -377.42974732 </i>
   </energy>
  </scstep>
  <scstep>
   <time name="dav">   15.13   16.42</time>
   <time name="total">   27.93   29.26</time>
   <energy>
    <i name="e_fr_energy">   -377.36058670 </i>
    <i name="e_wo_entrp">   -377.36058670 </i>
    <i name="e_0_energy">   -377.36058670 </i>
   </energy>
  </scstep>
  <scstep>
   <time name="dav">   15.01   16.31</time>
   <time name="total">   27.87   29.22</time>
   <energy>
    <i name="e_fr_energy">   -377.34253431 </i>
    <i name="e_wo_entrp">   -377.34253431 </i>
    <i name="e_0_energy">   -377.34253431 </i>
   </energy>
  </scstep>
  <scstep>
   <time name="dav">   15.13   16.43</time>
   <time name="total">   27.95   29.27</time>
   <energy>
    <i name="e_fr_energy">   -377.33128863 </i>
    <i name="e_wo_entrp">   -377.33128863 </i>
    <i name="e_0_energy">   -377.33128863 </i>
   </energy>
  </scstep>
  <scstep>
   <time name="dav">   15.06   16.32</time>
   <time name="total">   27.88   29.23</time>
   <energy>
    <i name="e_fr_energy">   -377.33162626 </i>
    <i name="e_wo_entrp">   -377.33162626 </i>
    <i name="e_0_energy">   -377.33162626 </i>
   </energy>
  </scstep>
  <scstep>
   <time name="dav">   15.14   16.48</time>
   <time name="total">   28.02   29.41</time>
   <energy>
    <i name="e_fr_energy">   -377.34374201 </i>
    <i name="e_wo_entrp">   -377.34374201 </i>
    <i name="e_0_energy">   -377.34374201 </i>
   </energy>
  </scstep>
  <scstep>
   <time name="dav">   15.02   16.34</time>
   <time name="total">   27.80   29.33</time>
   <energy>
    <i name="e_fr_energy">   -377.34805749 </i>
    <i name="e_wo_entrp">   -377.34805749 </i>
    <i name="e_0_energy">   -377.34805749 </i>
   </energy>
  </scstep>
  <scstep>
   <time name="dav">   15.17   16.43</time>
   <time name="total">   28.08   29.37</time>
   <energy>
    <i name="e_fr_energy">   -377.35336863 </i>
    <i name="e_wo_entrp">   -377.35336863 </i>
    <i name="e_0_energy">   -377.35336863 </i>
   </energy>
  </scstep>
  <scstep>
   <time name="dav">   15.03   16.30</time>
   <time name="total">   27.84   29.14</time>
   <energy>
    <i name="e_fr_energy">   -377.35700845 </i>
    <i name="e_wo_entrp">   -377.35700845 </i>
    <i name="e_0_energy">   -377.35700845 </i>
   </energy>
  </scstep>
  <scstep>
   <time name="dav">   15.06   16.36</time>
   <time name="total">   27.97   29.30</time>
   <energy>
    <i name="e_fr_energy">   -377.35887633 </i>
    <i name="e_wo_entrp">   -377.35887633 </i>
    <i name="e_0_energy">   -377.35887633 </i>
   </energy>
  </scstep>
  <scstep>
   <time name="dav">   15.03   16.32</time>
   <time name="total">   27.90   29.22</time>
   <energy>
    <i name="e_fr_energy">   -377.36039956 </i>
    <i name="e_wo_entrp">   -377.36039956 </i>
    <i name="e_0_energy">   -377.36039956 </i>
   </energy>
  </scstep>
  <scstep>
   <time name="dav">   15.05   16.34</time>
   <time name="total">   28.00   29.36</time>
   <energy>
    <i name="e_fr_energy">   -377.36128998 </i>
    <i name="e_wo_entrp">   -377.36128998 </i>
    <i name="e_0_energy">   -377.36128998 </i>
   </energy>
  </scstep>
  <scstep>
   <time name="dav">   13.11   14.28</time>
   <time name="total">   26.16   27.37</time>
   <energy>
    <i name="e_fr_energy">   -377.36184097 </i>
    <i name="e_wo_entrp">   -377.36184097 </i>
    <i name="e_0_energy">   -377.36184097 </i>
   </energy>
  </scstep>
  <scstep>
   <time name="dav">   13.11   14.27</time>
   <time name="total">   26.12   27.34</time>
   <energy>
    <i name="e_fr_energy">   -377.36216264 </i>
    <i name="e_wo_entrp">   -377.36216264 </i>
    <i name="e_0_energy">   -377.36216264 </i>
   </energy>
  </scstep>
  <scstep>
   <time name="dav">   13.10   14.28</time>
   <time name="total">   26.11   27.31</time>
   <energy>
    <i name="e_fr_energy">   -377.36235259 </i>
    <i name="e_wo_entrp">   -377.36235259 </i>
    <i name="e_0_energy">   -377.36235259 </i>
   </energy>
  </scstep>
  <scstep>
   <time name="dav">   13.29   14.45</time>
   <time name="total">   26.13   27.33</time>
   <energy>
    <i name="e_fr_energy">   -377.36245908 </i>
    <i name="e_wo_entrp">   -377.36245908 </i>
    <i name="e_0_energy">   -377.36245908 </i>
   </energy>
  </scstep>
  <scstep>
   <time name="dav">   13.10   14.27</time>
   <time name="total">   25.90   27.20</time>
   <energy>
    <i name="e_fr_energy">   -377.36250587 </i>
    <i name="e_wo_entrp">   -377.36250587 </i>
    <i name="e_0_energy">   -377.36250587 </i>
   </energy>
  </scstep>
  <scstep>
   <time name="dav">   13.28   14.45</time>
   <time name="total">   26.24   27.46</time>
   <energy>
    <i name="e_fr_energy">   -377.36253262 </i>
    <i name="e_wo_entrp">   -377.36253262 </i>
    <i name="e_0_energy">   -377.36253262 </i>
   </energy>
  </scstep>
  <scstep>
   <time name="dav">   13.22   14.38</time>
   <time name="total">   26.10   27.28</time>
   <energy>
    <i name="e_fr_energy">   -377.36254923 </i>
    <i name="e_wo_entrp">   -377.36254923 </i>
    <i name="e_0_energy">   -377.36254923 </i>
   </energy>
  </scstep>
  <scstep>
   <time name="dav">   13.23   14.40</time>
   <time name="total">   20.86   22.08</time>
   <energy>
    <i name="alphaZ">     12.91687988 </i>
    <i name="ewald">  23284.05024387 </i>
    <i name="hartreedc"> -29124.99158519 </i>
    <i name="XCdc">    424.26521575 </i>
    <i name="pawpsdc">  81136.12941890 </i>
    <i name="pawaedc"> -80962.90976414 </i>
    <i name="eentropy">     -0.00000000 </i>
    <i name="bandstr">  -2740.22287918 </i>
    <i name="atom">   7593.39991119 </i>
    <i name="e_fr_energy">   -377.36255891 </i>
    <i name="e_wo_entrp">   -377.36255891 </i>
    <i name="e_0_energy">   -377.36255891 </i>
   </energy>
  </scstep>
  <structure>
   <crystal>
    <varray name="basis" >
     <v>      20.00000000       0.00000000       0.00000000 </v>
     <v>       0.00000000      20.00000000       0.00000000 </v>
     <v>       0.00000000       0.00000000      20.00000000 </v>
    </varray>
    <i name="volume">   8000.00000000 </i>
    <varray name="rec_basis" >
     <v>       0.05000000       0.00000000       0.00000000 </v>
     <v>       0.00000000       0.05000000       0.00000000 </v>
     <v>       0.00000000       0.00000000       0.05000000 </v>
    </varray>
   </crystal>
   <varray name="positions" >
    <v>       0.70843899       0.47974495       0.57314689 </v>
    <v>       0.43793752       0.56561110       0.32757008 </v>
    <v>       0.45581208       0.52423376       0.38051465 </v>
    <v>       0.47372925       0.61530131       0.44986522 </v>
    <v>       0.45595175       0.65963312       0.39935201 </v>
    <v>       0.43785737       0.63472201       0.33675972 </v>
    <v>       0.52307882       0.32955005       0.67474498 </v>
    <v>       0.49710163       0.37190466       0.62618823 </v>
    <v>       0.60227374       0.41933300       0.60593616 </v>
    <v>       0.63096398       0.37761922       0.65422416 </v>
    <v>       0.73964927       0.52855915       0.53463181 </v>
    <v>       0.70082162       0.56612858       0.49044049 </v>
    <v>       0.63257913       0.55363620       0.48652424 </v>
    <v>       0.63952130       0.46927713       0.56732841 </v>
    <v>       0.29334713       0.47671938       0.56830116 </v>
    <v>       0.59134754       0.33224398       0.68903016 </v>
    <v>       0.36211554       0.48866484       0.56417415 </v>
    <v>       0.40790931       0.62211625       0.69058213 </v>
    <v>       0.47619960       0.62606623       0.67660612 </v>
    <v>       0.50295190       0.58590820       0.62668073 </v>
    <v>       0.39825425       0.53800137       0.60426081 </v>
    <v>       0.36904589       0.57756069       0.65398228 </v>
    <v>       0.37289802       0.40579857       0.48223443 </v>
    <v>       0.30486503       0.39173492       0.48443166 </v>
    <v>       0.26422003       0.42785518       0.52821594 </v>
    <v>       0.48989745       0.29510618       0.70074864 </v>
    <v>       0.61334240       0.29968355       0.72673159 </v>
    <v>       0.68424189       0.38076917       0.66478776 </v>
    <v>       0.54225374       0.36233861       0.46129841 </v>
    <v>       0.31579090       0.57306911       0.66420366 </v>
    <v>       0.44416348       0.37118871       0.61364770 </v>
    <v>       0.42392665       0.66833230       0.29622671 </v>
    <v>       0.45642762       0.71313270       0.40950260 </v>
    <v>       0.48809132       0.63358802       0.49907234 </v>
    <v>       0.56912778       0.41808713       0.41480476 </v>
    <v>       0.73767440       0.44963919       0.60776512 </v>
    <v>       0.72277620       0.60481012       0.45904817 </v>
    <v>       0.45570253       0.47012894       0.37468790 </v>
    <v>       0.40614333       0.37888556       0.44852541 </v>
    <v>       0.28443799       0.35306162       0.45202062 </v>
    <v>       0.79326502       0.53703787       0.53892527 </v>
    <v>       0.55589708       0.58769132       0.61440612 </v>
    <v>       0.42412006       0.54328620       0.27986105 </v>
    <v>       0.50894741       0.65984570       0.70400156 </v>
    <v>       0.26265982       0.50568523       0.60265428 </v>
    <v>       0.21072272       0.41813760       0.53105039 </v>
    <v>       0.60090654       0.58197914       0.45254259 </v>
    <v>       0.38544357       0.65296704       0.72941133 </v>
    <v>       0.47424490       0.54794204       0.44140236 </v>
    <v>       0.40180479       0.45306079       0.52108436 </v>
    <v>       0.53520702       0.41608490       0.59173240 </v>
    <v>       0.46544808       0.54254992       0.59041194 </v>
    <v>       0.60138410       0.50650621       0.52397638 </v>
    <v>       0.53073984       0.40562607       0.44215451 </v>
    <v>       0.50088568       0.48087016       0.51934246 </v>
   </varray>
  </structure>
  <varray name="forces" >
   <v>      -0.10284052       0.12837308      -0.14462883 </v>
   <v>      -0.00361767      -0.00591377      -0.00288116 </v>
   <v>      -0.00078427      -0.03899438       0.00172371 </v>
   <v>       0.01467741       0.01203522       0.01442228 </v>
   <v>       0.01004978       0.01353234       0.01168240 </v>
   <v>      -0.00224613      -0.00345792      -0.00004631 </v>
   <v>       0.06413765      -0.00054138       0.01728543 </v>
   <v>       0.01990808       0.07526775      -0.06338947 </v>
   <v>       0.16703481      -0.07681840       0.10559591 </v>
   <v>       0.04074297       0.06012333      -0.04544253 </v>
   <v>      -0.42077002      -0.59762750       0.46498269 </v>
   <v>      -0.10171799      -0.04180018       0.01371373 </v>
   <v>       0.24656325       0.05852259       0.00557398 </v>
   <v>       0.65720083       0.00213244       0.15306703 </v>
   <v>       0.01057788       0.00596288       0.00503953 </v>
   <v>       0.03416173      -0.04268008       0.05273674 </v>
   <v>       0.02371479       0.00379312      -0.01031186 </v>
   <v>       0.01584724      -0.00602447      -0.01384049 </v>
   <v>       0.01553640       0.01112925       0.00952706 </v>
   <v>      -0.03476528      -0.02673344      -0.02156596 </v>
   <v>       0.01772743      -0.00745404      -0.01654005 </v>
   <v>       0.00078523      -0.00155927      -0.00588856 </v>
   <v>       0.07306299       0.00293770      -0.01205946 </v>
   <v>      -0.02127635       0.00288165       0.01201882 </v>
   <v>       0.02472760      -0.00903440      -0.01482418 </v>
   <v>       0.00198607      -0.01086446       0.00970910 </v>
   <v>       0.00485272      -0.00042102       0.00212380 </v>
   <v>       0.02849669      -0.04926314       0.05758159 </v>
   <v>      -0.01906697      -0.03841466      -0.03479336 </v>
   <v>       0.00083851       0.00542672      -0.00108329 </v>
   <v>       0.00460494       0.00399936      -0.00686489 </v>
   <v>      -0.00379696       0.00558630      -0.00101716 </v>
   <v>       0.00136838       0.00194933       0.00126532 </v>
   <v>      -0.01112904       0.01793141       0.00888644 </v>
   <v>      -0.04516512      -0.03534286      -0.06185575 </v>
   <v>      -0.62120746       0.66545844      -0.75960441 </v>
   <v>       0.06451622      -0.03042677       0.03943812 </v>
   <v>      -0.01442432      -0.00261986      -0.01340709 </v>
   <v>      -0.00863302      -0.00894410      -0.00936651 </v>
   <v>       0.00413139      -0.00584798      -0.00230451 </v>
   <v>      -0.01298339      -0.12894306       0.12093249 </v>
   <v>      -0.00293573       0.02392595       0.01794869 </v>
   <v>      -0.00591920      -0.00163985       0.00404281 </v>
   <v>      -0.00130714       0.00515681       0.00153764 </v>
   <v>       0.00111866      -0.00160682      -0.00162442 </v>
   <v>      -0.00365959      -0.00185388      -0.00218326 </v>
   <v>      -0.01414520       0.00660061      -0.00708996 </v>
   <v>      -0.00040662       0.00708056       0.00586599 </v>
   <v>      -0.01116990       0.02314957      -0.01819549 </v>
   <v>      -0.08628778      -0.00211537       0.01027916 </v>
   <v>      -0.06923141       0.12170953      -0.11026616 </v>
   <v>      -0.07691978       0.08756715       0.09983538 </v>
   <v>      -0.04802093      -0.11937817       0.12603414 </v>
   <v>       0.02644362       0.04780250       0.05549901 </v>
   <v>       0.16961455      -0.10371434      -0.04727387 </v>
  </varray>
  <varray name="stress" >
   <v>      -3.15333358      -0.10488525      -0.02327512 </v>
   <v>      -0.10488525      -2.85184102       0.27195318 </v>
   <v>      -0.02327512       0.27195316      -2.84268950 </v>
  </varray>
  <energy>
   <i name="e_fr_energy">   -377.36255891 </i>
   <i name="e_wo_entrp">   -377.36255891 </i>
   <i name="e_0_energy">     -0.00000000 </i>
  </energy>
  <time name="totalsc"> 1012.21 1051.35</time>
  <eigenvalues>
   <array>
    <dimension dim="1">band</dimension>
    <dimension dim="2">kpoint</dimension>
    <dimension dim="3">spin</dimension>
    <field>eigene</field>
    <field>occ</field>
    <set>
     <set comment="spin 1">
      <set comment="kpoint 1">
       <r>  -49.0857    1.0000 </r>
       <r>  -48.9419    1.0000 </r>
       <r>  -48.7163    1.0000 </r>
       <r>  -29.2131    1.0000 </r>
       <r>  -27.5793    1.0000 </r>
       <r>  -26.8320    1.0000 </r>
       <r>  -26.6301    1.0000 </r>
       <r>  -26.1259    1.0000 </r>
       <r>  -26.1064    1.0000 </r>
       <r>  -24.1408    1.0000 </r>
       <r>  -23.0653    1.0000 </r>
       <r>  -22.6335    1.0000 </r>
       <r>  -22.3812    1.0000 </r>
       <r>  -22.2730    1.0000 </r>
       <r>  -22.1450    1.0000 </r>
       <r>  -21.9911    1.0000 </r>
       <r>  -21.5512    1.0000 </r>
       <r>  -21.0645    1.0000 </r>
       <r>  -20.7485    1.0000 </r>
       <r>  -19.6309    1.0000 </r>
       <r>  -19.3911    1.0000 </r>
       <r>  -18.6859    1.0000 </r>
       <r>  -18.4027    1.0000 </r>
       <r>  -18.2538    1.0000 </r>
       <r>  -18.0279    1.0000 </r>
       <r>  -17.7987    1.0000 </r>
       <r>  -17.5819    1.0000 </r>
       <r>  -17.5636    1.0000 </r>
       <r>  -17.2585    1.0000 </r>
       <r>  -16.8859    1.0000 </r>
       <r>  -16.6814    1.0000 </r>
       <r>  -15.8569    1.0000 </r>
       <r>  -15.7603    1.0000 </r>
       <r>  -15.4885    1.0000 </r>
       <r>  -15.2036    1.0000 </r>
       <r>  -14.8926    1.0000 </r>
       <r>  -14.7253    1.0000 </r>
       <r>  -14.6688    1.0000 </r>
       <r>  -14.4891    1.0000 </r>
       <r>  -14.1302    1.0000 </r>
       <r>  -14.0490    1.0000 </r>
       <r>  -13.9781    1.0000 </r>
       <r>  -13.9696    1.0000 </r>
       <r>  -13.8707    1.0000 </r>
       <r>  -13.7465    1.0000 </r>
       <r>  -13.6434    1.0000 </r>
       <r>  -13.4785    1.0000 </r>
       <r>  -13.3383    1.0000 </r>
       <r>  -13.1846    1.0000 </r>
       <r>  -13.0832    1.0000 </r>
       <r>  -12.9089    1.0000 </r>
       <r>  -12.8211    1.0000 </r>
       <r>  -12.7769    1.0000 </r>
       <r>  -12.6402    1.0000 </r>
       <r>  -12.5603    1.0000 </r>
       <r>  -12.4497    1.0000 </r>
       <r>  -12.3456    1.0000 </r>
       <r>  -12.1634    1.0000 </r>
       <r>  -12.1176    1.0000 </r>
       <r>  -11.9935    1.0000 </r>
       <r>  -11.6500    1.0000 </r>
       <r>  -11.5254    1.0000 </r>
       <r>  -11.3547    1.0000 </r>
       <r>  -11.1619    1.0000 </r>
       <r>  -11.0484    1.0000 </r>
       <r>  -10.9645    1.0000 </r>
       <r>  -10.7917    1.0000 </r>
       <r>  -10.6901    1.0000 </r>
       <r>  -10.4887    1.0000 </r>
       <r>  -10.4263    1.0000 </r>
       <r>  -10.1208    1.0000 </r>
       <r>  -10.0651    1.0000 </r>
       <r>   -9.8643    1.0000 </r>
       <r>   -9.7261    1.0000 </r>
       <r>   -9.6791    1.0000 </r>
       <r>   -9.5934    1.0000 </r>
       <r>   -9.3297    1.0000 </r>
       <r>   -9.0950    1.0000 </r>
       <r>   -8.6914    1.0000 </r>
       <r>   -8.3270    1.0000 </r>
       <r>   -7.4344    1.0000 </r>
       <r>   -7.2539    1.0000 </r>
       <r>   -7.1077    1.0000 </r>
       <r>   -5.7052    0.0000 </r>
       <r>   -5.3342    0.0000 </r>
       <r>   -4.9086    0.0000 </r>
       <r>   -4.4145    0.0000 </r>
       <r>   -4.1091    0.0000 </r>
       <r>   -4.0549    0.0000 </r>
       <r>   -3.9097    0.0000 </r>
       <r>   -3.8582    0.0000 </r>
       <r>   -3.4653    0.0000 </r>
       <r>   -3.3116    0.0000 </r>
       <r>   -3.1500    0.0000 </r>
       <r>   -2.9404    0.0000 </r>
       <r>   -2.6665    0.0000 </r>
       <r>   -2.0722    0.0000 </r>
       <r>   -1.7344    0.0000 </r>
       <r>   -1.6527    0.0000 </r>
       <r>   -1.4974    0.0000 </r>
       <r>   -1.2977    0.0000 </r>
       <r>   -1.1675    0.0000 </r>
       <r>   -1.0777    0.0000 </r>
       <r>   -0.9787    0.0000 </r>
       <r>   -0.9572    0.0000 </r>
       <r>   -0.6818    0.0000 </r>
       <r>   -0.6657    0.0000 </r>
       <r>   -0.6516    0.0000 </r>
       <r>   -0.5573    0.0000 </r>
       <r>   -0.4342    0.0000 </r>
       <r>   -0.3960    0.0000 </r>
       <r>   -0.3451    0.0000 </r>
       <r>   -0.2949    0.0000 </r>
       <r>   -0.1507    0.0000 </r>
       <r>    0.0065    0.0000 </r>
       <r>    0.0094    0.0000 </r>
       <r>    0.0680    0.0000 </r>
       <r>    0.1215    0.0000 </r>
       <r>    0.1931    0.0000 </r>
       <r>    0.2209    0.0000 </r>
       <r>    0.2878    0.0000 </r>
       <r>    0.3417    0.0000 </r>
       <r>    0.4243    0.0000 </r>
       <r>    0.4631    0.0000 </r>
       <r>    0.5676    0.0000 </r>
       <r>    0.6165    0.0000 </r>
       <r>    0.6448    0.0000 </r>
       <r>    0.6985    0.0000 </r>
      </set>
     </set>
     <set comment="spin 2">
      <set comment="kpoint 1">
       <r>  -49.0857    1.0000 </r>
       <r>  -48.9419    1.0000 </r>
       <r>  -48.7163    1.0000 </r>
       <r>  -29.2131    1.0000 </r>
       <r>  -27.5793    1.0000 </r>
       <r>  -26.8320    1.0000 </r>
       <r>  -26.6301    1.0000 </r>
       <r>  -26.1259    1.0000 </r>
       <r>  -26.1064    1.0000 </r>
       <r>  -24.1408    1.0000 </r>
       <r>  -23.0653    1.0000 </r>
       <r>  -22.6335    1.0000 </r>
       <r>  -22.3812    1.0000 </r>
       <r>  -22.2730    1.0000 </r>
       <r>  -22.1450    1.0000 </r>
       <r>  -21.9911    1.0000 </r>
       <r>  -21.5512    1.0000 </r>
       <r>  -21.0645    1.0000 </r>
       <r>  -20.7485    1.0000 </r>
       <r>  -19.6309    1.0000 </r>
       <r>  -19.3911    1.0000 </r>
       <r>  -18.6859    1.0000 </r>
       <r>  -18.4027    1.0000 </r>
       <r>  -18.2538    1.0000 </r>
       <r>  -18.0279    1.0000 </r>
       <r>  -17.7987    1.0000 </r>
       <r>  -17.5819    1.0000 </r>
       <r>  -17.5636    1.0000 </r>
       <r>  -17.2585    1.0000 </r>
       <r>  -16.8859    1.0000 </r>
       <r>  -16.6814    1.0000 </r>
       <r>  -15.8569    1.0000 </r>
       <r>  -15.7603    1.0000 </r>
       <r>  -15.4885    1.0000 </r>
       <r>  -15.2036    1.0000 </r>
       <r>  -14.8926    1.0000 </r>
       <r>  -14.7253    1.0000 </r>
       <r>  -14.6688    1.0000 </r>
       <r>  -14.4891    1.0000 </r>
       <r>  -14.1302    1.0000 </r>
       <r>  -14.0490    1.0000 </r>
       <r>  -13.9781    1.0000 </r>
       <r>  -13.9696    1.0000 </r>
       <r>  -13.8707    1.0000 </r>
       <r>  -13.7465    1.0000 </r>
       <r>  -13.6434    1.0000 </r>
       <r>  -13.4785    1.0000 </r>
       <r>  -13.3383    1.0000 </r>
       <r>  -13.1846    1.0000 </r>
       <r>  -13.0832    1.0000 </r>
       <r>  -12.9089    1.0000 </r>
       <r>  -12.8211    1.0000 </r>
       <r>  -12.7769    1.0000 </r>
       <r>  -12.6402    1.0000 </r>
       <r>  -12.5603    1.0000 </r>
       <r>  -12.4497    1.0000 </r>
       <r>  -12.3456    1.0000 </r>
       <r>  -12.1634    1.0000 </r>
       <r>  -12.1176    1.0000 </r>
       <r>  -11.9935    1.0000 </r>
       <r>  -11.6500    1.0000 </r>
       <r>  -11.5254    1.0000 </r>
       <r>  -11.3547    1.0000 </r>
       <r>  -11.1619    1.0000 </r>
       <r>  -11.0484    1.0000 </r>
       <r>  -10.9645    1.0000 </r>
       <r>  -10.7917    1.0000 </r>
       <r>  -10.6901    1.0000 </r>
       <r>  -10.4887    1.0000 </r>
       <r>  -10.4263    1.0000 </r>
       <r>  -10.1208    1.0000 </r>
       <r>  -10.0651    1.0000 </r>
       <r>   -9.8643    1.0000 </r>
       <r>   -9.7261    1.0000 </r>
       <r>   -9.6791    1.0000 </r>
       <r>   -9.5934    1.0000 </r>
       <r>   -9.3297    1.0000 </r>
       <r>   -9.0950    1.0000 </r>
       <r>   -8.6914    1.0000 </r>
       <r>   -8.3270    1.0000 </r>
       <r>   -7.4344    1.0000 </r>
       <r>   -7.2539    1.0000 </r>
       <r>   -7.1077    1.0000 </r>
       <r>   -5.7052    0.0000 </r>
       <r>   -5.3342    0.0000 </r>
       <r>   -4.9086    0.0000 </r>
       <r>   -4.4145    0.0000 </r>
       <r>   -4.1091    0.0000 </r>
       <r>   -4.0549    0.0000 </r>
       <r>   -3.9097    0.0000 </r>
       <r>   -3.8582    0.0000 </r>
       <r>   -3.4653    0.0000 </r>
       <r>   -3.3116    0.0000 </r>
       <r>   -3.1500    0.0000 </r>
       <r>   -2.9404    0.0000 </r>
       <r>   -2.6665    0.0000 </r>
       <r>   -2.0722    0.0000 </r>
       <r>   -1.7344    0.0000 </r>
       <r>   -1.6527    0.0000 </r>
       <r>   -1.4974    0.0000 </r>
       <r>   -1.2977    0.0000 </r>
       <r>   -1.1675    0.0000 </r>
       <r>   -1.0777    0.0000 </r>
       <r>   -0.9787    0.0000 </r>
       <r>   -0.9572    0.0000 </r>
       <r>   -0.6818    0.0000 </r>
       <r>   -0.6657    0.0000 </r>
       <r>   -0.6516    0.0000 </r>
       <r>   -0.5573    0.0000 </r>
       <r>   -0.4342    0.0000 </r>
       <r>   -0.3960    0.0000 </r>
       <r>   -0.3451    0.0000 </r>
       <r>   -0.2949    0.0000 </r>
       <r>   -0.1507    0.0000 </r>
       <r>    0.0065    0.0000 </r>
       <r>    0.0094    0.0000 </r>
       <r>    0.0680    0.0000 </r>
       <r>    0.1215    0.0000 </r>
       <r>    0.1931    0.0000 </r>
       <r>    0.2209    0.0000 </r>
       <r>    0.2878    0.0000 </r>
       <r>    0.3417    0.0000 </r>
       <r>    0.4243    0.0000 </r>
       <r>    0.4631    0.0000 </r>
       <r>    0.5676    0.0000 </r>
       <r>    0.6165    0.0000 </r>
       <r>    0.6448    0.0000 </r>
       <r>    0.6985    0.0000 </r>
      </set>
     </set>
    </set>
   </array>
  </eigenvalues>
  <separator name="orbital magnetization" >
   <v name="MAGDIPOLOUT">      0.00000000      0.00000000      0.00000000</v>
  </separator>
  <dos>
   <i name="efermi">     -6.98899029 </i>
   <total>
    <array>
     <dimension dim="1">gridpoints</dimension>
     <dimension dim="2">spin</dimension>
     <field>energy</field>
     <field>total</field>
     <field>integrated</field>
     <set>
      <set comment="spin 1">
       <r>   -51.5750     0.0000     0.0000 </r>
       <r>   -51.3924     0.0000     0.0000 </r>
       <r>   -51.2099     0.0000     0.0000 </r>
       <r>   -51.0273     0.0000     0.0000 </r>
       <r>   -50.8448     0.0000     0.0000 </r>
       <r>   -50.6622     0.0000     0.0000 </r>
       <r>   -50.4797     0.0000     0.0000 </r>
       <r>   -50.2972     0.0000     0.0000 </r>
       <r>   -50.1146     0.0000     0.0000 </r>
       <r>   -49.9321     0.0000     0.0000 </r>
       <r>   -49.7495     0.0000     0.0000 </r>
       <r>   -49.5670     0.0000     0.0000 </r>
       <r>   -49.3844     0.0000     0.0000 </r>
       <r>   -49.2019     0.0000     0.0000 </r>
       <r>   -49.0194    10.9564     2.0000 </r>
       <r>   -48.8368     0.0000     4.0000 </r>
       <r>   -48.6543    10.9564     6.0000 </r>
       <r>   -48.4717     0.0000     6.0000 </r>
       <r>   -48.2892     0.0000     6.0000 </r>
       <r>   -48.1066     0.0000     6.0000 </r>
       <r>   -47.9241     0.0000     6.0000 </r>
       <r>   -47.7416     0.0000     6.0000 </r>
       <r>   -47.5590     0.0000     6.0000 </r>
       <r>   -47.3765     0.0000     6.0000 </r>
       <r>   -47.1939     0.0000     6.0000 </r>
       <r>   -47.0114     0.0000     6.0000 </r>
       <r>   -46.8289     0.0000     6.0000 </r>
       <r>   -46.6463     0.0000     6.0000 </r>
       <r>   -46.4638     0.0000     6.0000 </r>
       <r>   -46.2812     0.0000     6.0000 </r>
       <r>   -46.0987     0.0000     6.0000 </r>
       <r>   -45.9161     0.0000     6.0000 </r>
       <r>   -45.7336     0.0000     6.0000 </r>
       <r>   -45.5511     0.0000     6.0000 </r>
       <r>   -45.3685     0.0000     6.0000 </r>
       <r>   -45.1860     0.0000     6.0000 </r>
       <r>   -45.0034     0.0000     6.0000 </r>
       <r>   -44.8209     0.0000     6.0000 </r>
       <r>   -44.6383     0.0000     6.0000 </r>
       <r>   -44.4558     0.0000     6.0000 </r>
       <r>   -44.2733     0.0000     6.0000 </r>
       <r>   -44.0907     0.0000     6.0000 </r>
       <r>   -43.9082     0.0000     6.0000 </r>
       <r>   -43.7256     0.0000     6.0000 </r>
       <r>   -43.5431     0.0000     6.0000 </r>
       <r>   -43.3605     0.0000     6.0000 </r>
       <r>   -43.1780     0.0000     6.0000 </r>
       <r>   -42.9955     0.0000     6.0000 </r>
       <r>   -42.8129     0.0000     6.0000 </r>
       <r>   -42.6304     0.0000     6.0000 </r>
       <r>   -42.4478     0.0000     6.0000 </r>
       <r>   -42.2653     0.0000     6.0000 </r>
       <r>   -42.0828     0.0000     6.0000 </r>
       <r>   -41.9002     0.0000     6.0000 </r>
       <r>   -41.7177     0.0000     6.0000 </r>
       <r>   -41.5351     0.0000     6.0000 </r>
       <r>   -41.3526     0.0000     6.0000 </r>
       <r>   -41.1700     0.0000     6.0000 </r>
       <r>   -40.9875     0.0000     6.0000 </r>
       <r>   -40.8050     0.0000     6.0000 </r>
       <r>   -40.6224     0.0000     6.0000 </r>
       <r>   -40.4399     0.0000     6.0000 </r>
       <r>   -40.2573     0.0000     6.0000 </r>
       <r>   -40.0748     0.0000     6.0000 </r>
       <r>   -39.8922     0.0000     6.0000 </r>
       <r>   -39.7097     0.0000     6.0000 </r>
       <r>   -39.5272     0.0000     6.0000 </r>
       <r>   -39.3446     0.0000     6.0000 </r>
       <r>   -39.1621     0.0000     6.0000 </r>
       <r>   -38.9795     0.0000     6.0000 </r>
       <r>   -38.7970     0.0000     6.0000 </r>
       <r>   -38.6144     0.0000     6.0000 </r>
       <r>   -38.4319     0.0000     6.0000 </r>
       <r>   -38.2494     0.0000     6.0000 </r>
       <r>   -38.0668     0.0000     6.0000 </r>
       <r>   -37.8843     0.0000     6.0000 </r>
       <r>   -37.7017     0.0000     6.0000 </r>
       <r>   -37.5192     0.0000     6.0000 </r>
       <r>   -37.3367     0.0000     6.0000 </r>
       <r>   -37.1541     0.0000     6.0000 </r>
       <r>   -36.9716     0.0000     6.0000 </r>
       <r>   -36.7890     0.0000     6.0000 </r>
       <r>   -36.6065     0.0000     6.0000 </r>
       <r>   -36.4239     0.0000     6.0000 </r>
       <r>   -36.2414     0.0000     6.0000 </r>
       <r>   -36.0589     0.0000     6.0000 </r>
       <r>   -35.8763     0.0000     6.0000 </r>
       <r>   -35.6938     0.0000     6.0000 </r>
       <r>   -35.5112     0.0000     6.0000 </r>
       <r>   -35.3287     0.0000     6.0000 </r>
       <r>   -35.1461     0.0000     6.0000 </r>
       <r>   -34.9636     0.0000     6.0000 </r>
       <r>   -34.7811     0.0000     6.0000 </r>
       <r>   -34.5985     0.0000     6.0000 </r>
       <r>   -34.4160     0.0000     6.0000 </r>
       <r>   -34.2334     0.0000     6.0000 </r>
       <r>   -34.0509     0.0000     6.0000 </r>
       <r>   -33.8683     0.0000     6.0000 </r>
       <r>   -33.6858     0.0000     6.0000 </r>
       <r>   -33.5033     0.0000     6.0000 </r>
       <r>   -33.3207     0.0000     6.0000 </r>
       <r>   -33.1382     0.0000     6.0000 </r>
       <r>   -32.9556     0.0000     6.0000 </r>
       <r>   -32.7731     0.0000     6.0000 </r>
       <r>   -32.5906     0.0000     6.0000 </r>
       <r>   -32.4080     0.0000     6.0000 </r>
       <r>   -32.2255     0.0000     6.0000 </r>
       <r>   -32.0429     0.0000     6.0000 </r>
       <r>   -31.8604     0.0000     6.0000 </r>
       <r>   -31.6778     0.0000     6.0000 </r>
       <r>   -31.4953     0.0000     6.0000 </r>
       <r>   -31.3128     0.0000     6.0000 </r>
       <r>   -31.1302     0.0000     6.0000 </r>
       <r>   -30.9477     0.0000     6.0000 </r>
       <r>   -30.7651     0.0000     6.0000 </r>
       <r>   -30.5826     0.0000     6.0000 </r>
       <r>   -30.4000     0.0000     6.0000 </r>
       <r>   -30.2175     0.0000     6.0000 </r>
       <r>   -30.0350     0.0000     6.0000 </r>
       <r>   -29.8524     0.0000     6.0000 </r>
       <r>   -29.6699     0.0000     6.0000 </r>
       <r>   -29.4873     0.0000     6.0000 </r>
       <r>   -29.3048     0.0000     6.0000 </r>
       <r>   -29.1222     0.0000     8.0000 </r>
       <r>   -28.9397     0.0000     8.0000 </r>
       <r>   -28.7572     0.0000     8.0000 </r>
       <r>   -28.5746     0.0000     8.0000 </r>
       <r>   -28.3921     0.0000     8.0000 </r>
       <r>   -28.2095     0.0000     8.0000 </r>
       <r>   -28.0270     0.0000     8.0000 </r>
       <r>   -27.8445     0.0000     8.0000 </r>
       <r>   -27.6619     0.0000     8.0000 </r>
       <r>   -27.4794     0.0000    10.0000 </r>
       <r>   -27.2968     0.0000    10.0000 </r>
       <r>   -27.1143     0.0000    10.0000 </r>
       <r>   -26.9317     0.0000    10.0000 </r>
       <r>   -26.7492     0.0000    12.0000 </r>
       <r>   -26.5667    10.9564    14.0000 </r>
       <r>   -26.3841     0.0000    14.0000 </r>
       <r>   -26.2016     0.0000    14.0000 </r>
       <r>   -26.0190     0.0000    18.0000 </r>
       <r>   -25.8365     0.0000    18.0000 </r>
       <r>   -25.6539     0.0000    18.0000 </r>
       <r>   -25.4714     0.0000    18.0000 </r>
       <r>   -25.2889     0.0000    18.0000 </r>
       <r>   -25.1063     0.0000    18.0000 </r>
       <r>   -24.9238     0.0000    18.0000 </r>
       <r>   -24.7412     0.0000    18.0000 </r>
       <r>   -24.5587     0.0000    18.0000 </r>
       <r>   -24.3761     0.0000    18.0000 </r>
       <r>   -24.1936     0.0000    18.0000 </r>
       <r>   -24.0111     0.0000    20.0000 </r>
       <r>   -23.8285     0.0000    20.0000 </r>
       <r>   -23.6460     0.0000    20.0000 </r>
       <r>   -23.4634     0.0000    20.0000 </r>
       <r>   -23.2809     0.0000    20.0000 </r>
       <r>   -23.0984     0.0000    20.0000 </r>
       <r>   -22.9158     0.0000    22.0000 </r>
       <r>   -22.7333     0.0000    22.0000 </r>
       <r>   -22.5507     0.0000    24.0000 </r>
       <r>   -22.3682    10.5922    25.9335 </r>
       <r>   -22.1856     0.0000    28.0000 </r>
       <r>   -22.0031     0.4882    30.0891 </r>
       <r>   -21.8206     0.0000    32.0000 </r>
       <r>   -21.6380     0.0000    32.0000 </r>
       <r>   -21.4555     0.0000    34.0000 </r>
       <r>   -21.2729     0.0000    34.0000 </r>
       <r>   -21.0904     0.0014    34.0003 </r>
       <r>   -20.9078     0.0000    36.0000 </r>
       <r>   -20.7253    10.9507    37.9990 </r>
       <r>   -20.5428     0.0000    38.0000 </r>
       <r>   -20.3602     0.0000    38.0000 </r>
       <r>   -20.1777     0.0000    38.0000 </r>
       <r>   -19.9951     0.0000    38.0000 </r>
       <r>   -19.8126     0.0000    38.0000 </r>
       <r>   -19.6300     6.0289    39.1005 </r>
       <r>   -19.4475     0.0000    40.0000 </r>
       <r>   -19.2650     0.0000    42.0000 </r>
       <r>   -19.0824     0.0000    42.0000 </r>
       <r>   -18.8999     0.0000    42.0000 </r>
       <r>   -18.7173     0.0000    42.0000 </r>
       <r>   -18.5348     0.0000    44.0000 </r>
       <r>   -18.3523    10.9564    46.0000 </r>
       <r>   -18.1697     0.0000    48.0000 </r>
       <r>   -17.9872    10.9564    50.0000 </r>
       <r>   -17.8046     2.1970    50.4010 </r>
       <r>   -17.6221     0.0000    52.0000 </r>
       <r>   -17.4395     0.0000    56.0000 </r>
       <r>   -17.2570     6.4209    57.1721 </r>
       <r>   -17.0745     0.0000    58.0000 </r>
       <r>   -16.8919     2.1851    58.3989 </r>
       <r>   -16.7094     0.0004    60.0001 </r>
       <r>   -16.5268     0.0000    62.0000 </r>
       <r>   -16.3443     0.0000    62.0000 </r>
       <r>   -16.1617     0.0000    62.0000 </r>
       <r>   -15.9792     0.0000    62.0000 </r>
       <r>   -15.7967    10.9564    64.0000 </r>
       <r>   -15.6141     0.0000    66.0000 </r>
       <r>   -15.4316    10.9564    68.0000 </r>
       <r>   -15.2490     0.0000    68.0000 </r>
       <r>   -15.0665     0.0000    70.0000 </r>
       <r>   -14.8839     9.7478    71.7794 </r>
       <r>   -14.7014    10.9525    73.9993 </r>
       <r>   -14.5189     0.0001    76.0000 </r>
       <r>   -14.3363     0.0000    78.0000 </r>
       <r>   -14.1538     0.0047    78.0009 </r>
       <r>   -13.9712    24.5969    84.4900 </r>
       <r>   -13.7887     0.0000    88.0000 </r>
       <r>   -13.6061    10.9564    92.0000 </r>
       <r>   -13.4236    10.9564    94.0000 </r>
       <r>   -13.2411     0.0000    96.0000 </r>
       <r>   -13.0585    10.9537    99.9995 </r>
       <r>   -12.8760    10.9563   102.0000 </r>
       <r>   -12.6934     0.0000   106.0000 </r>
       <r>   -12.5109    10.9564   110.0000 </r>
       <r>   -12.3284    10.8763   113.9854 </r>
       <r>   -12.1458    10.8872   115.9874 </r>
       <r>   -11.9633    10.9563   120.0000 </r>
       <r>   -11.7807     0.0000   120.0000 </r>
       <r>   -11.5982    10.9564   122.0000 </r>
       <r>   -11.4156     0.0000   124.0000 </r>
       <r>   -11.2331     0.0000   126.0000 </r>
       <r>   -11.0506     4.1755   128.7622 </r>
       <r>   -10.8680     0.0000   132.0000 </r>
       <r>   -10.6855     8.1238   135.4829 </r>
       <r>   -10.5029     0.2439   136.0445 </r>
       <r>   -10.3204     0.0000   140.0000 </r>
       <r>   -10.1378     0.0867   140.0158 </r>
       <r>    -9.9553     0.0000   144.0000 </r>
       <r>    -9.7728     0.0000   146.0000 </r>
       <r>    -9.5902     7.4054   151.3518 </r>
       <r>    -9.4077     0.0000   152.0000 </r>
       <r>    -9.2251     0.0000   154.0000 </r>
       <r>    -9.0426    10.9564   156.0000 </r>
       <r>    -8.8600     0.0000   156.0000 </r>
       <r>    -8.6775    10.6883   157.9511 </r>
       <r>    -8.4950     0.0000   158.0000 </r>
       <r>    -8.3124    10.7428   159.9610 </r>
       <r>    -8.1299     0.0000   160.0000 </r>
       <r>    -7.9473     0.0000   160.0000 </r>
       <r>    -7.7648     0.0000   160.0000 </r>
       <r>    -7.5823     0.0000   160.0000 </r>
       <r>    -7.3997    10.9564   162.0000 </r>
       <r>    -7.2172    10.9564   164.0000 </r>
       <r>    -7.0346    10.9564   166.0000 </r>
       <r>    -6.8521     0.0000   166.0000 </r>
       <r>    -6.6695     0.0000   166.0000 </r>
       <r>    -6.4870     0.0000   166.0000 </r>
       <r>    -6.3045     0.0000   166.0000 </r>
       <r>    -6.1219     0.0000   166.0000 </r>
       <r>    -5.9394     0.0000   166.0000 </r>
       <r>    -5.7568     0.0000   166.0000 </r>
       <r>    -5.5743     0.0000   168.0000 </r>
       <r>    -5.3917     0.0000   168.0000 </r>
       <r>    -5.2092     0.0000   170.0000 </r>
       <r>    -5.0267     0.0000   170.0000 </r>
       <r>    -4.8441    10.9564   172.0000 </r>
       <r>    -4.6616     0.0000   172.0000 </r>
       <r>    -4.4790     0.0000   172.0000 </r>
       <r>    -4.2965     0.0000   174.0000 </r>
       <r>    -4.1139     2.6857   174.4903 </r>
       <r>    -3.9314     0.0119   178.0022 </r>
       <r>    -3.7489     0.0000   182.0000 </r>
       <r>    -3.5663     0.0000   182.0000 </r>
       <r>    -3.3838     0.0000   184.0000 </r>
       <r>    -3.2012     0.0000   186.0000 </r>
       <r>    -3.0187     0.0000   188.0000 </r>
       <r>    -2.8362     0.0000   190.0000 </r>
       <r>    -2.6536    10.5878   191.9327 </r>
       <r>    -2.4711     0.0000   192.0000 </r>
       <r>    -2.2885     0.0000   192.0000 </r>
       <r>    -2.1060     0.0000   192.0000 </r>
       <r>    -1.9234     0.0000   194.0000 </r>
       <r>    -1.7409     1.9707   194.3597 </r>
       <r>    -1.5584     0.0000   198.0000 </r>
       <r>    -1.3758     0.0000   200.0000 </r>
       <r>    -1.1933     0.0015   202.0003 </r>
       <r>    -1.0107    10.9564   206.0000 </r>
       <r>    -0.8282     0.0000   210.0000 </r>
       <r>    -0.6456    30.6430   215.5936 </r>
       <r>    -0.4631     0.0002   218.0000 </r>
       <r>    -0.2806    21.6818   225.9578 </r>
       <r>    -0.0980    10.9564   228.0000 </r>
       <r>     0.0845    32.7615   233.9804 </r>
       <r>     0.2671    21.9314   240.0034 </r>
       <r>     0.4496    11.2599   246.0554 </r>
       <r>     0.6322    22.1674   252.0465 </r>
       <r>     0.8147     0.0000   256.0000 </r>
       <r>     0.9972     0.0000   256.0000 </r>
       <r>     1.1798     0.0000   256.0000 </r>
       <r>     1.3623     0.0000   256.0000 </r>
       <r>     1.5449     0.0000   256.0000 </r>
       <r>     1.7274     0.0000   256.0000 </r>
       <r>     1.9099     0.0000   256.0000 </r>
       <r>     2.0925     0.0000   256.0000 </r>
       <r>     2.2750     0.0000   256.0000 </r>
       <r>     2.4576     0.0000   256.0000 </r>
       <r>     2.6401     0.0000   256.0000 </r>
       <r>     2.8227     0.0000   256.0000 </r>
       <r>     3.0052     0.0000   256.0000 </r>
       <r>     3.1877     0.0000   256.0000 </r>
      </set>
      <set comment="spin 2">
       <r>   -51.5750     0.0000     0.0000 </r>
       <r>   -51.3924     0.0000     0.0000 </r>
       <r>   -51.2099     0.0000     0.0000 </r>
       <r>   -51.0273     0.0000     0.0000 </r>
       <r>   -50.8448     0.0000     0.0000 </r>
       <r>   -50.6622     0.0000     0.0000 </r>
       <r>   -50.4797     0.0000     0.0000 </r>
       <r>   -50.2972     0.0000     0.0000 </r>
       <r>   -50.1146     0.0000     0.0000 </r>
       <r>   -49.9321     0.0000     0.0000 </r>
       <r>   -49.7495     0.0000     0.0000 </r>
       <r>   -49.5670     0.0000     0.0000 </r>
       <r>   -49.3844     0.0000     0.0000 </r>
       <r>   -49.2019     0.0000     0.0000 </r>
       <r>   -49.0194    10.9564     2.0000 </r>
       <r>   -48.8368     0.0000     4.0000 </r>
       <r>   -48.6543    10.9564     6.0000 </r>
       <r>   -48.4717     0.0000     6.0000 </r>
       <r>   -48.2892     0.0000     6.0000 </r>
       <r>   -48.1066     0.0000     6.0000 </r>
       <r>   -47.9241     0.0000     6.0000 </r>
       <r>   -47.7416     0.0000     6.0000 </r>
       <r>   -47.5590     0.0000     6.0000 </r>
       <r>   -47.3765     0.0000     6.0000 </r>
       <r>   -47.1939     0.0000     6.0000 </r>
       <r>   -47.0114     0.0000     6.0000 </r>
       <r>   -46.8289     0.0000     6.0000 </r>
       <r>   -46.6463     0.0000     6.0000 </r>
       <r>   -46.4638     0.0000     6.0000 </r>
       <r>   -46.2812     0.0000     6.0000 </r>
       <r>   -46.0987     0.0000     6.0000 </r>
       <r>   -45.9161     0.0000     6.0000 </r>
       <r>   -45.7336     0.0000     6.0000 </r>
       <r>   -45.5511     0.0000     6.0000 </r>
       <r>   -45.3685     0.0000     6.0000 </r>
       <r>   -45.1860     0.0000     6.0000 </r>
       <r>   -45.0034     0.0000     6.0000 </r>
       <r>   -44.8209     0.0000     6.0000 </r>
       <r>   -44.6383     0.0000     6.0000 </r>
       <r>   -44.4558     0.0000     6.0000 </r>
       <r>   -44.2733     0.0000     6.0000 </r>
       <r>   -44.0907     0.0000     6.0000 </r>
       <r>   -43.9082     0.0000     6.0000 </r>
       <r>   -43.7256     0.0000     6.0000 </r>
       <r>   -43.5431     0.0000     6.0000 </r>
       <r>   -43.3605     0.0000     6.0000 </r>
       <r>   -43.1780     0.0000     6.0000 </r>
       <r>   -42.9955     0.0000     6.0000 </r>
       <r>   -42.8129     0.0000     6.0000 </r>
       <r>   -42.6304     0.0000     6.0000 </r>
       <r>   -42.4478     0.0000     6.0000 </r>
       <r>   -42.2653     0.0000     6.0000 </r>
       <r>   -42.0828     0.0000     6.0000 </r>
       <r>   -41.9002     0.0000     6.0000 </r>
       <r>   -41.7177     0.0000     6.0000 </r>
       <r>   -41.5351     0.0000     6.0000 </r>
       <r>   -41.3526     0.0000     6.0000 </r>
       <r>   -41.1700     0.0000     6.0000 </r>
       <r>   -40.9875     0.0000     6.0000 </r>
       <r>   -40.8050     0.0000     6.0000 </r>
       <r>   -40.6224     0.0000     6.0000 </r>
       <r>   -40.4399     0.0000     6.0000 </r>
       <r>   -40.2573     0.0000     6.0000 </r>
       <r>   -40.0748     0.0000     6.0000 </r>
       <r>   -39.8922     0.0000     6.0000 </r>
       <r>   -39.7097     0.0000     6.0000 </r>
       <r>   -39.5272     0.0000     6.0000 </r>
       <r>   -39.3446     0.0000     6.0000 </r>
       <r>   -39.1621     0.0000     6.0000 </r>
       <r>   -38.9795     0.0000     6.0000 </r>
       <r>   -38.7970     0.0000     6.0000 </r>
       <r>   -38.6144     0.0000     6.0000 </r>
       <r>   -38.4319     0.0000     6.0000 </r>
       <r>   -38.2494     0.0000     6.0000 </r>
       <r>   -38.0668     0.0000     6.0000 </r>
       <r>   -37.8843     0.0000     6.0000 </r>
       <r>   -37.7017     0.0000     6.0000 </r>
       <r>   -37.5192     0.0000     6.0000 </r>
       <r>   -37.3367     0.0000     6.0000 </r>
       <r>   -37.1541     0.0000     6.0000 </r>
       <r>   -36.9716     0.0000     6.0000 </r>
       <r>   -36.7890     0.0000     6.0000 </r>
       <r>   -36.6065     0.0000     6.0000 </r>
       <r>   -36.4239     0.0000     6.0000 </r>
       <r>   -36.2414     0.0000     6.0000 </r>
       <r>   -36.0589     0.0000     6.0000 </r>
       <r>   -35.8763     0.0000     6.0000 </r>
       <r>   -35.6938     0.0000     6.0000 </r>
       <r>   -35.5112     0.0000     6.0000 </r>
       <r>   -35.3287     0.0000     6.0000 </r>
       <r>   -35.1461     0.0000     6.0000 </r>
       <r>   -34.9636     0.0000     6.0000 </r>
       <r>   -34.7811     0.0000     6.0000 </r>
       <r>   -34.5985     0.0000     6.0000 </r>
       <r>   -34.4160     0.0000     6.0000 </r>
       <r>   -34.2334     0.0000     6.0000 </r>
       <r>   -34.0509     0.0000     6.0000 </r>
       <r>   -33.8683     0.0000     6.0000 </r>
       <r>   -33.6858     0.0000     6.0000 </r>
       <r>   -33.5033     0.0000     6.0000 </r>
       <r>   -33.3207     0.0000     6.0000 </r>
       <r>   -33.1382     0.0000     6.0000 </r>
       <r>   -32.9556     0.0000     6.0000 </r>
       <r>   -32.7731     0.0000     6.0000 </r>
       <r>   -32.5906     0.0000     6.0000 </r>
       <r>   -32.4080     0.0000     6.0000 </r>
       <r>   -32.2255     0.0000     6.0000 </r>
       <r>   -32.0429     0.0000     6.0000 </r>
       <r>   -31.8604     0.0000     6.0000 </r>
       <r>   -31.6778     0.0000     6.0000 </r>
       <r>   -31.4953     0.0000     6.0000 </r>
       <r>   -31.3128     0.0000     6.0000 </r>
       <r>   -31.1302     0.0000     6.0000 </r>
       <r>   -30.9477     0.0000     6.0000 </r>
       <r>   -30.7651     0.0000     6.0000 </r>
       <r>   -30.5826     0.0000     6.0000 </r>
       <r>   -30.4000     0.0000     6.0000 </r>
       <r>   -30.2175     0.0000     6.0000 </r>
       <r>   -30.0350     0.0000     6.0000 </r>
       <r>   -29.8524     0.0000     6.0000 </r>
       <r>   -29.6699     0.0000     6.0000 </r>
       <r>   -29.4873     0.0000     6.0000 </r>
       <r>   -29.3048     0.0000     6.0000 </r>
       <r>   -29.1222     0.0000     8.0000 </r>
       <r>   -28.9397     0.0000     8.0000 </r>
       <r>   -28.7572     0.0000     8.0000 </r>
       <r>   -28.5746     0.0000     8.0000 </r>
       <r>   -28.3921     0.0000     8.0000 </r>
       <r>   -28.2095     0.0000     8.0000 </r>
       <r>   -28.0270     0.0000     8.0000 </r>
       <r>   -27.8445     0.0000     8.0000 </r>
       <r>   -27.6619     0.0000     8.0000 </r>
       <r>   -27.4794     0.0000    10.0000 </r>
       <r>   -27.2968     0.0000    10.0000 </r>
       <r>   -27.1143     0.0000    10.0000 </r>
       <r>   -26.9317     0.0000    10.0000 </r>
       <r>   -26.7492     0.0000    12.0000 </r>
       <r>   -26.5667    10.9564    14.0000 </r>
       <r>   -26.3841     0.0000    14.0000 </r>
       <r>   -26.2016     0.0000    14.0000 </r>
       <r>   -26.0190     0.0000    18.0000 </r>
       <r>   -25.8365     0.0000    18.0000 </r>
       <r>   -25.6539     0.0000    18.0000 </r>
       <r>   -25.4714     0.0000    18.0000 </r>
       <r>   -25.2889     0.0000    18.0000 </r>
       <r>   -25.1063     0.0000    18.0000 </r>
       <r>   -24.9238     0.0000    18.0000 </r>
       <r>   -24.7412     0.0000    18.0000 </r>
       <r>   -24.5587     0.0000    18.0000 </r>
       <r>   -24.3761     0.0000    18.0000 </r>
       <r>   -24.1936     0.0000    18.0000 </r>
       <r>   -24.0111     0.0000    20.0000 </r>
       <r>   -23.8285     0.0000    20.0000 </r>
       <r>   -23.6460     0.0000    20.0000 </r>
       <r>   -23.4634     0.0000    20.0000 </r>
       <r>   -23.2809     0.0000    20.0000 </r>
       <r>   -23.0984     0.0000    20.0000 </r>
       <r>   -22.9158     0.0000    22.0000 </r>
       <r>   -22.7333     0.0000    22.0000 </r>
       <r>   -22.5507     0.0000    24.0000 </r>
       <r>   -22.3682    10.5922    25.9335 </r>
       <r>   -22.1856     0.0000    28.0000 </r>
       <r>   -22.0031     0.4882    30.0891 </r>
       <r>   -21.8206     0.0000    32.0000 </r>
       <r>   -21.6380     0.0000    32.0000 </r>
       <r>   -21.4555     0.0000    34.0000 </r>
       <r>   -21.2729     0.0000    34.0000 </r>
       <r>   -21.0904     0.0014    34.0003 </r>
       <r>   -20.9078     0.0000    36.0000 </r>
       <r>   -20.7253    10.9507    37.9990 </r>
       <r>   -20.5428     0.0000    38.0000 </r>
       <r>   -20.3602     0.0000    38.0000 </r>
       <r>   -20.1777     0.0000    38.0000 </r>
       <r>   -19.9951     0.0000    38.0000 </r>
       <r>   -19.8126     0.0000    38.0000 </r>
       <r>   -19.6300     6.0289    39.1005 </r>
       <r>   -19.4475     0.0000    40.0000 </r>
       <r>   -19.2650     0.0000    42.0000 </r>
       <r>   -19.0824     0.0000    42.0000 </r>
       <r>   -18.8999     0.0000    42.0000 </r>
       <r>   -18.7173     0.0000    42.0000 </r>
       <r>   -18.5348     0.0000    44.0000 </r>
       <r>   -18.3523    10.9564    46.0000 </r>
       <r>   -18.1697     0.0000    48.0000 </r>
       <r>   -17.9872    10.9564    50.0000 </r>
       <r>   -17.8046     2.1970    50.4010 </r>
       <r>   -17.6221     0.0000    52.0000 </r>
       <r>   -17.4395     0.0000    56.0000 </r>
       <r>   -17.2570     6.4209    57.1721 </r>
       <r>   -17.0745     0.0000    58.0000 </r>
       <r>   -16.8919     2.1851    58.3989 </r>
       <r>   -16.7094     0.0004    60.0001 </r>
       <r>   -16.5268     0.0000    62.0000 </r>
       <r>   -16.3443     0.0000    62.0000 </r>
       <r>   -16.1617     0.0000    62.0000 </r>
       <r>   -15.9792     0.0000    62.0000 </r>
       <r>   -15.7967    10.9564    64.0000 </r>
       <r>   -15.6141     0.0000    66.0000 </r>
       <r>   -15.4316    10.9564    68.0000 </r>
       <r>   -15.2490     0.0000    68.0000 </r>
       <r>   -15.0665     0.0000    70.0000 </r>
       <r>   -14.8839     9.7478    71.7794 </r>
       <r>   -14.7014    10.9525    73.9993 </r>
       <r>   -14.5189     0.0001    76.0000 </r>
       <r>   -14.3363     0.0000    78.0000 </r>
       <r>   -14.1538     0.0047    78.0009 </r>
       <r>   -13.9712    24.5969    84.4900 </r>
       <r>   -13.7887     0.0000    88.0000 </r>
       <r>   -13.6061    10.9564    92.0000 </r>
       <r>   -13.4236    10.9564    94.0000 </r>
       <r>   -13.2411     0.0000    96.0000 </r>
       <r>   -13.0585    10.9537    99.9995 </r>
       <r>   -12.8760    10.9563   102.0000 </r>
       <r>   -12.6934     0.0000   106.0000 </r>
       <r>   -12.5109    10.9564   110.0000 </r>
       <r>   -12.3284    10.8763   113.9854 </r>
       <r>   -12.1458    10.8872   115.9874 </r>
       <r>   -11.9633    10.9563   120.0000 </r>
       <r>   -11.7807     0.0000   120.0000 </r>
       <r>   -11.5982    10.9564   122.0000 </r>
       <r>   -11.4156     0.0000   124.0000 </r>
       <r>   -11.2331     0.0000   126.0000 </r>
       <r>   -11.0506     4.1755   128.7622 </r>
       <r>   -10.8680     0.0000   132.0000 </r>
       <r>   -10.6855     8.1238   135.4829 </r>
       <r>   -10.5029     0.2439   136.0445 </r>
       <r>   -10.3204     0.0000   140.0000 </r>
       <r>   -10.1378     0.0867   140.0158 </r>
       <r>    -9.9553     0.0000   144.0000 </r>
       <r>    -9.7728     0.0000   146.0000 </r>
       <r>    -9.5902     7.4054   151.3518 </r>
       <r>    -9.4077     0.0000   152.0000 </r>
       <r>    -9.2251     0.0000   154.0000 </r>
       <r>    -9.0426    10.9564   156.0000 </r>
       <r>    -8.8600     0.0000   156.0000 </r>
       <r>    -8.6775    10.6883   157.9511 </r>
       <r>    -8.4950     0.0000   158.0000 </r>
       <r>    -8.3124    10.7428   159.9610 </r>
       <r>    -8.1299     0.0000   160.0000 </r>
       <r>    -7.9473     0.0000   160.0000 </r>
       <r>    -7.7648     0.0000   160.0000 </r>
       <r>    -7.5823     0.0000   160.0000 </r>
       <r>    -7.3997    10.9564   162.0000 </r>
       <r>    -7.2172    10.9564   164.0000 </r>
       <r>    -7.0346    10.9564   166.0000 </r>
       <r>    -6.8521     0.0000   166.0000 </r>
       <r>    -6.6695     0.0000   166.0000 </r>
       <r>    -6.4870     0.0000   166.0000 </r>
       <r>    -6.3045     0.0000   166.0000 </r>
       <r>    -6.1219     0.0000   166.0000 </r>
       <r>    -5.9394     0.0000   166.0000 </r>
       <r>    -5.7568     0.0000   166.0000 </r>
       <r>    -5.5743     0.0000   168.0000 </r>
       <r>    -5.3917     0.0000   168.0000 </r>
       <r>    -5.2092     0.0000   170.0000 </r>
       <r>    -5.0267     0.0000   170.0000 </r>
       <r>    -4.8441    10.9564   172.0000 </r>
       <r>    -4.6616     0.0000   172.0000 </r>
       <r>    -4.4790     0.0000   172.0000 </r>
       <r>    -4.2965     0.0000   174.0000 </r>
       <r>    -4.1139     2.6857   174.4903 </r>
       <r>    -3.9314     0.0119   178.0022 </r>
       <r>    -3.7489     0.0000   182.0000 </r>
       <r>    -3.5663     0.0000   182.0000 </r>
       <r>    -3.3838     0.0000   184.0000 </r>
       <r>    -3.2012     0.0000   186.0000 </r>
       <r>    -3.0187     0.0000   188.0000 </r>
       <r>    -2.8362     0.0000   190.0000 </r>
       <r>    -2.6536    10.5878   191.9327 </r>
       <r>    -2.4711     0.0000   192.0000 </r>
       <r>    -2.2885     0.0000   192.0000 </r>
       <r>    -2.1060     0.0000   192.0000 </r>
       <r>    -1.9234     0.0000   194.0000 </r>
       <r>    -1.7409     1.9707   194.3597 </r>
       <r>    -1.5584     0.0000   198.0000 </r>
       <r>    -1.3758     0.0000   200.0000 </r>
       <r>    -1.1933     0.0015   202.0003 </r>
       <r>    -1.0107    10.9564   206.0000 </r>
       <r>    -0.8282     0.0000   210.0000 </r>
       <r>    -0.6456    30.6427   215.5936 </r>
       <r>    -0.4631     0.0002   218.0000 </r>
       <r>    -0.2806    21.6818   225.9579 </r>
       <r>    -0.0980    10.9564   228.0000 </r>
       <r>     0.0845    32.7614   233.9803 </r>
       <r>     0.2671    21.9314   240.0034 </r>
       <r>     0.4496    11.2599   246.0554 </r>
       <r>     0.6322    22.1674   252.0465 </r>
       <r>     0.8147     0.0000   256.0000 </r>
       <r>     0.9972     0.0000   256.0000 </r>
       <r>     1.1798     0.0000   256.0000 </r>
       <r>     1.3623     0.0000   256.0000 </r>
       <r>     1.5449     0.0000   256.0000 </r>
       <r>     1.7274     0.0000   256.0000 </r>
       <r>     1.9099     0.0000   256.0000 </r>
       <r>     2.0925     0.0000   256.0000 </r>
       <r>     2.2750     0.0000   256.0000 </r>
       <r>     2.4576     0.0000   256.0000 </r>
       <r>     2.6401     0.0000   256.0000 </r>
       <r>     2.8227     0.0000   256.0000 </r>
       <r>     3.0052     0.0000   256.0000 </r>
       <r>     3.1877     0.0000   256.0000 </r>
      </set>
     </set>
    </array>
   </total>
  </dos>
 </calculation>
 <structure name="finalpos" >
  <crystal>
   <varray name="basis" >
    <v>      20.00000000       0.00000000       0.00000000 </v>
    <v>       0.00000000      20.00000000       0.00000000 </v>
    <v>       0.00000000       0.00000000      20.00000000 </v>
   </varray>
   <i name="volume">   8000.00000000 </i>
   <varray name="rec_basis" >
    <v>       0.05000000       0.00000000       0.00000000 </v>
    <v>       0.00000000       0.05000000       0.00000000 </v>
    <v>       0.00000000       0.00000000       0.05000000 </v>
   </varray>
  </crystal>
  <varray name="positions" >
   <v>       0.70843899       0.47974495       0.57314689 </v>
   <v>       0.43793752       0.56561110       0.32757008 </v>
   <v>       0.45581208       0.52423376       0.38051465 </v>
   <v>       0.47372925       0.61530131       0.44986522 </v>
   <v>       0.45595175       0.65963312       0.39935201 </v>
   <v>       0.43785737       0.63472201       0.33675972 </v>
   <v>       0.52307882       0.32955005       0.67474498 </v>
   <v>       0.49710163       0.37190466       0.62618823 </v>
   <v>       0.60227374       0.41933300       0.60593616 </v>
   <v>       0.63096398       0.37761922       0.65422416 </v>
   <v>       0.73964927       0.52855915       0.53463181 </v>
   <v>       0.70082162       0.56612858       0.49044049 </v>
   <v>       0.63257913       0.55363620       0.48652424 </v>
   <v>       0.63952130       0.46927713       0.56732841 </v>
   <v>       0.29334713       0.47671938       0.56830116 </v>
   <v>       0.59134754       0.33224398       0.68903016 </v>
   <v>       0.36211554       0.48866484       0.56417415 </v>
   <v>       0.40790931       0.62211625       0.69058213 </v>
   <v>       0.47619960       0.62606623       0.67660612 </v>
   <v>       0.50295190       0.58590820       0.62668073 </v>
   <v>       0.39825425       0.53800137       0.60426081 </v>
   <v>       0.36904589       0.57756069       0.65398228 </v>
   <v>       0.37289802       0.40579857       0.48223443 </v>
   <v>       0.30486503       0.39173492       0.48443166 </v>
   <v>       0.26422003       0.42785518       0.52821594 </v>
   <v>       0.48989745       0.29510618       0.70074864 </v>
   <v>       0.61334240       0.29968355       0.72673159 </v>
   <v>       0.68424189       0.38076917       0.66478776 </v>
   <v>       0.54225374       0.36233861       0.46129841 </v>
   <v>       0.31579090       0.57306911       0.66420366 </v>
   <v>       0.44416348       0.37118871       0.61364770 </v>
   <v>       0.42392665       0.66833230       0.29622671 </v>
   <v>       0.45642762       0.71313270       0.40950260 </v>
   <v>       0.48809132       0.63358802       0.49907234 </v>
   <v>       0.56912778       0.41808713       0.41480476 </v>
   <v>       0.73767440       0.44963919       0.60776512 </v>
   <v>       0.72277620       0.60481012       0.45904817 </v>
   <v>       0.45570253       0.47012894       0.37468790 </v>
   <v>       0.40614333       0.37888556       0.44852541 </v>
   <v>       0.28443799       0.35306162       0.45202062 </v>
   <v>       0.79326502       0.53703787       0.53892527 </v>
   <v>       0.55589708       0.58769132       0.61440612 </v>
   <v>       0.42412006       0.54328620       0.27986105 </v>
   <v>       0.50894741       0.65984570       0.70400156 </v>
   <v>       0.26265982       0.50568523       0.60265428 </v>
   <v>       0.21072272       0.41813760       0.53105039 </v>
   <v>       0.60090654       0.58197914       0.45254259 </v>
   <v>       0.38544357       0.65296704       0.72941133 </v>
   <v>       0.47424490       0.54794204       0.44140236 </v>
   <v>       0.40180479       0.45306079       0.52108436 </v>
   <v>       0.53520702       0.41608490       0.59173240 </v>
   <v>       0.46544808       0.54254992       0.59041194 </v>
   <v>       0.60138410       0.50650621       0.52397638 </v>
   <v>       0.53073984       0.40562607       0.44215451 </v>
   <v>       0.50088568       0.48087016       0.51934246 </v>
  </varray>
  <varray name="selective"  type="logical" >
   <v type="logical" >  T  T  T </v>
   <v type="logical" >  T  T  T </v>
   <v type="logical" >  T  T  T </v>
   <v type="logical" >  T  T  T </v>
   <v type="logical" >  T  T  T </v>
   <v type="logical" >  T  T  T </v>
   <v type="logical" >  T  T  T </v>
   <v type="logical" >  T  T  T </v>
   <v type="logical" >  T  T  T </v>
   <v type="logical" >  T  T  T </v>
   <v type="logical" >  T  T  T </v>
   <v type="logical" >  T  T  T </v>
   <v type="logical" >  T  T  T </v>
   <v type="logical" >  T  T  T </v>
   <v type="logical" >  T  T  T </v>
   <v type="logical" >  T  T  T </v>
   <v type="logical" >  T  T  T </v>
   <v type="logical" >  T  T  T </v>
   <v type="logical" >  T  T  T </v>
   <v type="logical" >  T  T  T </v>
   <v type="logical" >  T  T  T </v>
   <v type="logical" >  T  T  T </v>
   <v type="logical" >  T  T  T </v>
   <v type="logical" >  T  T  T </v>
   <v type="logical" >  T  T  T </v>
   <v type="logical" >  T  T  T </v>
   <v type="logical" >  T  T  T </v>
   <v type="logical" >  T  T  T </v>
   <v type="logical" >  T  T  T </v>
   <v type="logical" >  T  T  T </v>
   <v type="logical" >  T  T  T </v>
   <v type="logical" >  T  T  T </v>
   <v type="logical" >  T  T  T </v>
   <v type="logical" >  T  T  T </v>
   <v type="logical" >  T  T  T </v>
   <v type="logical" >  T  T  T </v>
   <v type="logical" >  T  T  T </v>
   <v type="logical" >  T  T  T </v>
   <v type="logical" >  T  T  T </v>
   <v type="logical" >  T  T  T </v>
   <v type="logical" >  T  T  T </v>
   <v type="logical" >  T  T  T </v>
   <v type="logical" >  T  T  T </v>
   <v type="logical" >  T  T  T </v>
   <v type="logical" >  T  T  T </v>
   <v type="logical" >  T  T  T </v>
   <v type="logical" >  T  T  T </v>
   <v type="logical" >  T  T  T </v>
   <v type="logical" >  T  T  T </v>
   <v type="logical" >  T  T  T </v>
   <v type="logical" >  T  T  T </v>
   <v type="logical" >  T  T  T </v>
   <v type="logical" >  T  T  T </v>
   <v type="logical" >  T  T  T </v>
   <v type="logical" >  T  T  T </v>
  </varray>
  <nose>
   <v>      -3.00000000       0.00000000       0.00010000       0.00010000 </v>
  </nose>
 </structure>
</modeling>
