  55  55   0   0
  0.1454545E+03  0.2000000E-08  0.2000000E-08  0.2000000E-08  0.5000000E-15
  1.000000000000000E-004
  CAR 
 c2_oh2_ruthenium_mol                    
      3.22110865    -51.49931376  301     -6.94776984      1.00000000
    -51.499  0.0000E+00  0.0000E+00  0.0000E+00  0.0000E+00
    -51.317  0.0000E+00  0.0000E+00  0.0000E+00  0.0000E+00
    -51.135  0.0000E+00  0.0000E+00  0.0000E+00  0.0000E+00
    -50.952  0.0000E+00  0.0000E+00  0.0000E+00  0.0000E+00
    -50.770  0.0000E+00  0.0000E+00  0.0000E+00  0.0000E+00
    -50.587  0.0000E+00  0.0000E+00  0.0000E+00  0.0000E+00
    -50.405  0.0000E+00  0.0000E+00  0.0000E+00  0.0000E+00
    -50.223  0.0000E+00  0.0000E+00  0.0000E+00  0.0000E+00
    -50.040  0.0000E+00  0.0000E+00  0.0000E+00  0.0000E+00
    -49.858  0.0000E+00  0.0000E+00  0.0000E+00  0.0000E+00
    -49.675  0.0000E+00  0.0000E+00  0.0000E+00  0.0000E+00
    -49.493  0.0000E+00  0.0000E+00  0.0000E+00  0.0000E+00
    -49.310  0.0000E+00  0.0000E+00  0.0000E+00  0.0000E+00
    -49.128  0.0000E+00  0.0000E+00  0.0000E+00  0.0000E+00
    -48.946  0.1096E+02  0.1096E+02  0.2000E+01  0.2000E+01
    -48.763  0.0000E+00  0.0000E+00  0.4000E+01  0.4000E+01
    -48.581  0.1096E+02  0.1096E+02  0.6000E+01  0.6000E+01
    -48.398  0.0000E+00  0.0000E+00  0.6000E+01  0.6000E+01
    -48.216  0.0000E+00  0.0000E+00  0.6000E+01  0.6000E+01
    -48.034  0.0000E+00  0.0000E+00  0.6000E+01  0.6000E+01
    -47.851  0.0000E+00  0.0000E+00  0.6000E+01  0.6000E+01
    -47.669  0.0000E+00  0.0000E+00  0.6000E+01  0.6000E+01
    -47.486  0.0000E+00  0.0000E+00  0.6000E+01  0.6000E+01
    -47.304  0.0000E+00  0.0000E+00  0.6000E+01  0.6000E+01
    -47.122  0.0000E+00  0.0000E+00  0.6000E+01  0.6000E+01
    -46.939  0.0000E+00  0.0000E+00  0.6000E+01  0.6000E+01
    -46.757  0.0000E+00  0.0000E+00  0.6000E+01  0.6000E+01
    -46.574  0.0000E+00  0.0000E+00  0.6000E+01  0.6000E+01
    -46.392  0.0000E+00  0.0000E+00  0.6000E+01  0.6000E+01
    -46.210  0.0000E+00  0.0000E+00  0.6000E+01  0.6000E+01
    -46.027  0.0000E+00  0.0000E+00  0.6000E+01  0.6000E+01
    -45.845  0.0000E+00  0.0000E+00  0.6000E+01  0.6000E+01
    -45.662  0.0000E+00  0.0000E+00  0.6000E+01  0.6000E+01
    -45.480  0.0000E+00  0.0000E+00  0.6000E+01  0.6000E+01
    -45.298  0.0000E+00  0.0000E+00  0.6000E+01  0.6000E+01
    -45.115  0.0000E+00  0.0000E+00  0.6000E+01  0.6000E+01
    -44.933  0.0000E+00  0.0000E+00  0.6000E+01  0.6000E+01
    -44.750  0.0000E+00  0.0000E+00  0.6000E+01  0.6000E+01
    -44.568  0.0000E+00  0.0000E+00  0.6000E+01  0.6000E+01
    -44.386  0.0000E+00  0.0000E+00  0.6000E+01  0.6000E+01
    -44.203  0.0000E+00  0.0000E+00  0.6000E+01  0.6000E+01
    -44.021  0.0000E+00  0.0000E+00  0.6000E+01  0.6000E+01
    -43.838  0.0000E+00  0.0000E+00  0.6000E+01  0.6000E+01
    -43.656  0.0000E+00  0.0000E+00  0.6000E+01  0.6000E+01
    -43.474  0.0000E+00  0.0000E+00  0.6000E+01  0.6000E+01
    -43.291  0.0000E+00  0.0000E+00  0.6000E+01  0.6000E+01
    -43.109  0.0000E+00  0.0000E+00  0.6000E+01  0.6000E+01
    -42.926  0.0000E+00  0.0000E+00  0.6000E+01  0.6000E+01
    -42.744  0.0000E+00  0.0000E+00  0.6000E+01  0.6000E+01
    -42.562  0.0000E+00  0.0000E+00  0.6000E+01  0.6000E+01
    -42.379  0.0000E+00  0.0000E+00  0.6000E+01  0.6000E+01
    -42.197  0.0000E+00  0.0000E+00  0.6000E+01  0.6000E+01
    -42.014  0.0000E+00  0.0000E+00  0.6000E+01  0.6000E+01
    -41.832  0.0000E+00  0.0000E+00  0.6000E+01  0.6000E+01
    -41.650  0.0000E+00  0.0000E+00  0.6000E+01  0.6000E+01
    -41.467  0.0000E+00  0.0000E+00  0.6000E+01  0.6000E+01
    -41.285  0.0000E+00  0.0000E+00  0.6000E+01  0.6000E+01
    -41.102  0.0000E+00  0.0000E+00  0.6000E+01  0.6000E+01
    -40.920  0.0000E+00  0.0000E+00  0.6000E+01  0.6000E+01
    -40.738  0.0000E+00  0.0000E+00  0.6000E+01  0.6000E+01
    -40.555  0.0000E+00  0.0000E+00  0.6000E+01  0.6000E+01
    -40.373  0.0000E+00  0.0000E+00  0.6000E+01  0.6000E+01
    -40.190  0.0000E+00  0.0000E+00  0.6000E+01  0.6000E+01
    -40.008  0.0000E+00  0.0000E+00  0.6000E+01  0.6000E+01
    -39.826  0.0000E+00  0.0000E+00  0.6000E+01  0.6000E+01
    -39.643  0.0000E+00  0.0000E+00  0.6000E+01  0.6000E+01
    -39.461  0.0000E+00  0.0000E+00  0.6000E+01  0.6000E+01
    -39.278  0.0000E+00  0.0000E+00  0.6000E+01  0.6000E+01
    -39.096  0.0000E+00  0.0000E+00  0.6000E+01  0.6000E+01
    -38.914  0.0000E+00  0.0000E+00  0.6000E+01  0.6000E+01
    -38.731  0.0000E+00  0.0000E+00  0.6000E+01  0.6000E+01
    -38.549  0.0000E+00  0.0000E+00  0.6000E+01  0.6000E+01
    -38.366  0.0000E+00  0.0000E+00  0.6000E+01  0.6000E+01
    -38.184  0.0000E+00  0.0000E+00  0.6000E+01  0.6000E+01
    -38.002  0.0000E+00  0.0000E+00  0.6000E+01  0.6000E+01
    -37.819  0.0000E+00  0.0000E+00  0.6000E+01  0.6000E+01
    -37.637  0.0000E+00  0.0000E+00  0.6000E+01  0.6000E+01
    -37.454  0.0000E+00  0.0000E+00  0.6000E+01  0.6000E+01
    -37.272  0.0000E+00  0.0000E+00  0.6000E+01  0.6000E+01
    -37.090  0.0000E+00  0.0000E+00  0.6000E+01  0.6000E+01
    -36.907  0.0000E+00  0.0000E+00  0.6000E+01  0.6000E+01
    -36.725  0.0000E+00  0.0000E+00  0.6000E+01  0.6000E+01
    -36.542  0.0000E+00  0.0000E+00  0.6000E+01  0.6000E+01
    -36.360  0.0000E+00  0.0000E+00  0.6000E+01  0.6000E+01
    -36.178  0.0000E+00  0.0000E+00  0.6000E+01  0.6000E+01
    -35.995  0.0000E+00  0.0000E+00  0.6000E+01  0.6000E+01
    -35.813  0.0000E+00  0.0000E+00  0.6000E+01  0.6000E+01
    -35.630  0.0000E+00  0.0000E+00  0.6000E+01  0.6000E+01
    -35.448  0.0000E+00  0.0000E+00  0.6000E+01  0.6000E+01
    -35.266  0.0000E+00  0.0000E+00  0.6000E+01  0.6000E+01
    -35.083  0.0000E+00  0.0000E+00  0.6000E+01  0.6000E+01
    -34.901  0.0000E+00  0.0000E+00  0.6000E+01  0.6000E+01
    -34.718  0.0000E+00  0.0000E+00  0.6000E+01  0.6000E+01
    -34.536  0.0000E+00  0.0000E+00  0.6000E+01  0.6000E+01
    -34.354  0.0000E+00  0.0000E+00  0.6000E+01  0.6000E+01
    -34.171  0.0000E+00  0.0000E+00  0.6000E+01  0.6000E+01
    -33.989  0.0000E+00  0.0000E+00  0.6000E+01  0.6000E+01
    -33.806  0.0000E+00  0.0000E+00  0.6000E+01  0.6000E+01
    -33.624  0.0000E+00  0.0000E+00  0.6000E+01  0.6000E+01
    -33.442  0.0000E+00  0.0000E+00  0.6000E+01  0.6000E+01
    -33.259  0.0000E+00  0.0000E+00  0.6000E+01  0.6000E+01
    -33.077  0.0000E+00  0.0000E+00  0.6000E+01  0.6000E+01
    -32.894  0.0000E+00  0.0000E+00  0.6000E+01  0.6000E+01
    -32.712  0.0000E+00  0.0000E+00  0.6000E+01  0.6000E+01
    -32.530  0.0000E+00  0.0000E+00  0.6000E+01  0.6000E+01
    -32.347  0.0000E+00  0.0000E+00  0.6000E+01  0.6000E+01
    -32.165  0.0000E+00  0.0000E+00  0.6000E+01  0.6000E+01
    -31.982  0.0000E+00  0.0000E+00  0.6000E+01  0.6000E+01
    -31.800  0.0000E+00  0.0000E+00  0.6000E+01  0.6000E+01
    -31.618  0.0000E+00  0.0000E+00  0.6000E+01  0.6000E+01
    -31.435  0.0000E+00  0.0000E+00  0.6000E+01  0.6000E+01
    -31.253  0.0000E+00  0.0000E+00  0.6000E+01  0.6000E+01
    -31.070  0.0000E+00  0.0000E+00  0.6000E+01  0.6000E+01
    -30.888  0.0000E+00  0.0000E+00  0.6000E+01  0.6000E+01
    -30.706  0.0000E+00  0.0000E+00  0.6000E+01  0.6000E+01
    -30.523  0.0000E+00  0.0000E+00  0.6000E+01  0.6000E+01
    -30.341  0.0000E+00  0.0000E+00  0.6000E+01  0.6000E+01
    -30.158  0.0000E+00  0.0000E+00  0.6000E+01  0.6000E+01
    -29.976  0.0000E+00  0.0000E+00  0.6000E+01  0.6000E+01
    -29.794  0.0000E+00  0.0000E+00  0.6000E+01  0.6000E+01
    -29.611  0.0000E+00  0.0000E+00  0.6000E+01  0.6000E+01
    -29.429  0.0000E+00  0.0000E+00  0.6000E+01  0.6000E+01
    -29.246  0.0000E+00  0.0000E+00  0.6000E+01  0.6000E+01
    -29.064  0.1096E+02  0.1096E+02  0.8000E+01  0.8000E+01
    -28.882  0.0000E+00  0.0000E+00  0.8000E+01  0.8000E+01
    -28.699  0.0000E+00  0.0000E+00  0.8000E+01  0.8000E+01
    -28.517  0.0000E+00  0.0000E+00  0.8000E+01  0.8000E+01
    -28.334  0.0000E+00  0.0000E+00  0.8000E+01  0.8000E+01
    -28.152  0.0000E+00  0.0000E+00  0.8000E+01  0.8000E+01
    -27.970  0.0000E+00  0.0000E+00  0.8000E+01  0.8000E+01
    -27.787  0.0000E+00  0.0000E+00  0.8000E+01  0.8000E+01
    -27.605  0.0000E+00  0.0000E+00  0.8000E+01  0.8000E+01
    -27.422  0.0000E+00  0.0000E+00  0.8000E+01  0.8000E+01
    -27.240  0.0000E+00  0.0000E+00  0.8000E+01  0.8000E+01
    -27.058  0.1096E+02  0.1096E+02  0.1000E+02  0.1000E+02
    -26.875  0.2487E-01  0.2487E-01  0.1000E+02  0.1000E+02
    -26.693  0.1096E+02  0.1096E+02  0.1400E+02  0.1400E+02
    -26.510  0.0000E+00  0.0000E+00  0.1400E+02  0.1400E+02
    -26.328  0.0000E+00  0.0000E+00  0.1400E+02  0.1400E+02
    -26.146  0.1172E-01  0.1172E-01  0.1400E+02  0.1400E+02
    -25.963  0.0000E+00  0.0000E+00  0.1800E+02  0.1800E+02
    -25.781  0.0000E+00  0.0000E+00  0.1800E+02  0.1800E+02
    -25.598  0.0000E+00  0.0000E+00  0.1800E+02  0.1800E+02
    -25.416  0.0000E+00  0.0000E+00  0.1800E+02  0.1800E+02
    -25.234  0.0000E+00  0.0000E+00  0.1800E+02  0.1800E+02
    -25.051  0.0000E+00  0.0000E+00  0.1800E+02  0.1800E+02
    -24.869  0.0000E+00  0.0000E+00  0.1800E+02  0.1800E+02
    -24.686  0.0000E+00  0.0000E+00  0.1800E+02  0.1800E+02
    -24.504  0.0000E+00  0.0000E+00  0.1800E+02  0.1800E+02
    -24.322  0.0000E+00  0.0000E+00  0.1800E+02  0.1800E+02
    -24.139  0.5626E-02  0.5627E-02  0.1800E+02  0.1800E+02
    -23.957  0.0000E+00  0.0000E+00  0.2000E+02  0.2000E+02
    -23.774  0.0000E+00  0.0000E+00  0.2000E+02  0.2000E+02
    -23.592  0.0000E+00  0.0000E+00  0.2000E+02  0.2000E+02
    -23.409  0.0000E+00  0.0000E+00  0.2000E+02  0.2000E+02
    -23.227  0.0000E+00  0.0000E+00  0.2000E+02  0.2000E+02
    -23.045  0.0000E+00  0.0000E+00  0.2000E+02  0.2000E+02
    -22.862  0.0000E+00  0.0000E+00  0.2000E+02  0.2000E+02
    -22.680  0.0000E+00  0.0000E+00  0.2000E+02  0.2000E+02
    -22.497  0.0000E+00  0.0000E+00  0.2000E+02  0.2000E+02
    -22.315  0.1097E+02  0.1097E+02  0.2400E+02  0.2400E+02
    -22.133  0.2913E+02  0.2913E+02  0.3331E+02  0.3331E+02
    -21.950  0.0000E+00  0.0000E+00  0.3400E+02  0.3400E+02
    -21.768  0.0000E+00  0.0000E+00  0.3400E+02  0.3400E+02
    -21.585  0.0000E+00  0.0000E+00  0.3400E+02  0.3400E+02
    -21.403  0.0000E+00  0.0000E+00  0.3400E+02  0.3400E+02
    -21.221  0.0000E+00  0.0000E+00  0.3400E+02  0.3400E+02
    -21.038  0.0000E+00  0.0000E+00  0.3400E+02  0.3400E+02
    -20.856  0.0000E+00  0.0000E+00  0.3400E+02  0.3400E+02
    -20.673  0.1096E+02  0.1096E+02  0.3800E+02  0.3800E+02
    -20.491  0.0000E+00  0.0000E+00  0.3800E+02  0.3800E+02
    -20.309  0.0000E+00  0.0000E+00  0.3800E+02  0.3800E+02
    -20.126  0.0000E+00  0.0000E+00  0.3800E+02  0.3800E+02
    -19.944  0.0000E+00  0.0000E+00  0.3800E+02  0.3800E+02
    -19.761  0.0000E+00  0.0000E+00  0.3800E+02  0.3800E+02
    -19.579  0.0000E+00  0.0000E+00  0.3800E+02  0.3800E+02
    -19.397  0.0000E+00  0.0000E+00  0.3800E+02  0.3800E+02
    -19.214  0.5274E+00  0.5274E+00  0.3810E+02  0.3810E+02
    -19.032  0.1096E+02  0.1096E+02  0.4200E+02  0.4200E+02
    -18.849  0.0000E+00  0.0000E+00  0.4200E+02  0.4200E+02
    -18.667  0.1112E+02  0.1112E+02  0.4403E+02  0.4403E+02
    -18.485  0.0000E+00  0.0000E+00  0.4600E+02  0.4600E+02
    -18.302  0.0000E+00  0.0000E+00  0.5000E+02  0.5000E+02
    -18.120  0.0000E+00  0.0000E+00  0.5000E+02  0.5000E+02
    -17.937  0.0000E+00  0.0000E+00  0.5000E+02  0.5000E+02
    -17.755  0.0000E+00  0.0000E+00  0.5000E+02  0.5000E+02
    -17.573  0.9933E+01  0.9933E+01  0.5181E+02  0.5181E+02
    -17.390  0.0000E+00  0.0000E+00  0.5400E+02  0.5400E+02
    -17.208  0.2193E+02  0.2193E+02  0.5800E+02  0.5800E+02
    -17.025  0.0000E+00  0.0000E+00  0.5800E+02  0.5800E+02
    -16.843  0.2782E+01  0.2782E+01  0.5851E+02  0.5851E+02
    -16.661  0.0000E+00  0.0000E+00  0.6000E+02  0.6000E+02
    -16.478  0.1096E+02  0.1096E+02  0.6200E+02  0.6200E+02
    -16.296  0.0000E+00  0.0000E+00  0.6200E+02  0.6200E+02
    -16.113  0.0000E+00  0.0000E+00  0.6200E+02  0.6200E+02
    -15.931  0.1237E-01  0.1237E-01  0.6200E+02  0.6200E+02
    -15.749  0.2757E-12  0.2757E-12  0.6400E+02  0.6400E+02
    -15.566  0.2265E-03  0.2265E-03  0.6600E+02  0.6600E+02
    -15.384  0.0000E+00  0.0000E+00  0.6800E+02  0.6800E+02
    -15.201  0.0000E+00  0.0000E+00  0.6800E+02  0.6800E+02
    -15.019  0.0000E+00  0.0000E+00  0.6800E+02  0.6800E+02
    -14.837  0.0000E+00  0.0000E+00  0.6800E+02  0.6800E+02
    -14.654  0.2193E+02  0.2193E+02  0.7400E+02  0.7400E+02
    -14.472  0.1096E+02  0.1096E+02  0.7800E+02  0.7800E+02
    -14.289  0.0000E+00  0.0000E+00  0.7800E+02  0.7800E+02
    -14.107  0.1096E+02  0.1096E+02  0.8000E+02  0.8000E+02
    -13.925  0.1815E+02  0.1815E+02  0.8331E+02  0.8331E+02
    -13.742  0.1206E+02  0.1206E+02  0.8820E+02  0.8820E+02
    -13.560  0.6089E-03  0.6089E-03  0.9000E+02  0.9000E+02
    -13.377  0.9723E-04  0.9723E-04  0.9400E+02  0.9400E+02
    -13.195  0.1053E+02  0.1053E+02  0.9792E+02  0.9792E+02
    -13.013  0.1096E+02  0.1096E+02  0.1000E+03  0.1000E+03
    -12.830  0.1096E+02  0.1096E+02  0.1040E+03  0.1040E+03
    -12.648  0.1096E+02  0.1096E+02  0.1080E+03  0.1080E+03
    -12.465  0.1105E+02  0.1105E+02  0.1100E+03  0.1100E+03
    -12.283  0.1096E+02  0.1096E+02  0.1140E+03  0.1140E+03
    -12.101  0.1018E+02  0.1018E+02  0.1179E+03  0.1179E+03
    -11.918  0.0000E+00  0.0000E+00  0.1200E+03  0.1200E+03
    -11.736  0.0000E+00  0.0000E+00  0.1200E+03  0.1200E+03
    -11.553  0.0000E+00  0.0000E+00  0.1200E+03  0.1200E+03
    -11.371  0.1096E+02  0.1096E+02  0.1220E+03  0.1220E+03
    -11.189  0.1096E+02  0.1096E+02  0.1260E+03  0.1260E+03
    -11.006  0.2877E+02  0.2877E+02  0.1332E+03  0.1332E+03
    -10.824  0.0000E+00  0.0000E+00  0.1340E+03  0.1340E+03
    -10.641  0.5960E+01  0.5960E+01  0.1351E+03  0.1351E+03
    -10.459  0.0000E+00  0.0000E+00  0.1360E+03  0.1360E+03
    -10.277  0.0000E+00  0.0000E+00  0.1380E+03  0.1380E+03
    -10.094  0.6118E+00  0.6118E+00  0.1381E+03  0.1381E+03
     -9.912  0.5211E+01  0.5211E+01  0.1410E+03  0.1410E+03
     -9.729  0.2242E+02  0.2242E+02  0.1481E+03  0.1481E+03
     -9.547  0.0000E+00  0.0000E+00  0.1540E+03  0.1540E+03
     -9.365  0.0000E+00  0.0000E+00  0.1560E+03  0.1560E+03
     -9.182  0.0000E+00  0.0000E+00  0.1560E+03  0.1560E+03
     -9.000  0.0000E+00  0.0000E+00  0.1560E+03  0.1560E+03
     -8.817  0.0000E+00  0.0000E+00  0.1560E+03  0.1560E+03
     -8.635  0.0000E+00  0.0000E+00  0.1560E+03  0.1560E+03
     -8.453  0.0000E+00  0.0000E+00  0.1560E+03  0.1560E+03
     -8.270  0.1096E+02  0.1096E+02  0.1600E+03  0.1600E+03
     -8.088  0.0000E+00  0.0000E+00  0.1600E+03  0.1600E+03
     -7.905  0.0000E+00  0.0000E+00  0.1600E+03  0.1600E+03
     -7.723  0.0000E+00  0.0000E+00  0.1600E+03  0.1600E+03
     -7.541  0.0000E+00  0.0000E+00  0.1600E+03  0.1600E+03
     -7.358  0.1096E+02  0.1096E+02  0.1620E+03  0.1620E+03
     -7.176  0.1003E+02  0.1003E+02  0.1638E+03  0.1638E+03
     -6.993  0.1096E+02  0.1096E+02  0.1660E+03  0.1660E+03
     -6.811  0.0000E+00  0.0000E+00  0.1660E+03  0.1660E+03
     -6.629  0.0000E+00  0.0000E+00  0.1660E+03  0.1660E+03
     -6.446  0.0000E+00  0.0000E+00  0.1660E+03  0.1660E+03
     -6.264  0.0000E+00  0.0000E+00  0.1660E+03  0.1660E+03
     -6.081  0.0000E+00  0.0000E+00  0.1660E+03  0.1660E+03
     -5.899  0.0000E+00  0.0000E+00  0.1660E+03  0.1660E+03
     -5.717  0.0000E+00  0.0000E+00  0.1660E+03  0.1660E+03
     -5.534  0.1093E+02  0.1093E+02  0.1680E+03  0.1680E+03
     -5.352  0.0000E+00  0.0000E+00  0.1680E+03  0.1680E+03
     -5.169  0.0000E+00  0.0000E+00  0.1680E+03  0.1680E+03
     -4.987  0.1052E-01  0.1052E-01  0.1680E+03  0.1680E+03
     -4.805  0.0000E+00  0.0000E+00  0.1720E+03  0.1720E+03
     -4.622  0.0000E+00  0.0000E+00  0.1720E+03  0.1720E+03
     -4.440  0.0000E+00  0.0000E+00  0.1740E+03  0.1740E+03
     -4.257  0.6087E-15  0.6087E-15  0.1740E+03  0.1740E+03
     -4.075  0.6293E-05  0.6293E-05  0.1760E+03  0.1760E+03
     -3.893  0.1619E+02  0.1619E+02  0.1810E+03  0.1810E+03
     -3.710  0.1096E+02  0.1096E+02  0.1840E+03  0.1840E+03
     -3.528  0.0000E+00  0.0000E+00  0.1840E+03  0.1840E+03
     -3.345  0.0000E+00  0.0000E+00  0.1840E+03  0.1840E+03
     -3.163  0.3295E-09  0.3296E-09  0.1840E+03  0.1840E+03
     -2.981  0.0000E+00  0.0000E+00  0.1860E+03  0.1860E+03
     -2.798  0.1096E+02  0.1096E+02  0.1880E+03  0.1880E+03
     -2.616  0.1095E+02  0.1095E+02  0.1920E+03  0.1920E+03
     -2.433  0.0000E+00  0.0000E+00  0.1920E+03  0.1920E+03
     -2.251  0.0000E+00  0.0000E+00  0.1920E+03  0.1920E+03
     -2.069  0.0000E+00  0.0000E+00  0.1920E+03  0.1920E+03
     -1.886  0.1096E+02  0.1096E+02  0.1940E+03  0.1940E+03
     -1.704  0.0000E+00  0.0000E+00  0.1940E+03  0.1940E+03
     -1.521  0.1096E+02  0.1096E+02  0.1980E+03  0.1980E+03
     -1.339  0.1096E+02  0.1096E+02  0.2000E+03  0.2000E+03
     -1.157  0.2193E+02  0.2193E+02  0.2040E+03  0.2040E+03
     -0.974  0.1096E+02  0.1096E+02  0.2080E+03  0.2080E+03
     -0.792  0.2038E+02  0.2038E+02  0.2117E+03  0.2117E+03
     -0.609  0.1096E+02  0.1096E+02  0.2160E+03  0.2160E+03
     -0.427  0.8757E+00  0.8755E+00  0.2182E+03  0.2182E+03
     -0.245  0.1096E+02  0.1096E+02  0.2260E+03  0.2260E+03
     -0.062  0.2039E+02  0.2039E+02  0.2317E+03  0.2317E+03
      0.120  0.9554E+00  0.9546E+00  0.2342E+03  0.2342E+03
      0.303  0.1096E+02  0.1096E+02  0.2380E+03  0.2380E+03
      0.485  0.1088E+02  0.1088E+02  0.2440E+03  0.2440E+03
      0.667  0.1996E+02  0.1996E+02  0.2516E+03  0.2516E+03
      0.850  0.0000E+00  0.0000E+00  0.2560E+03  0.2560E+03
      1.032  0.0000E+00  0.0000E+00  0.2560E+03  0.2560E+03
      1.215  0.0000E+00  0.0000E+00  0.2560E+03  0.2560E+03
      1.397  0.0000E+00  0.0000E+00  0.2560E+03  0.2560E+03
      1.579  0.0000E+00  0.0000E+00  0.2560E+03  0.2560E+03
      1.762  0.0000E+00  0.0000E+00  0.2560E+03  0.2560E+03
      1.944  0.0000E+00  0.0000E+00  0.2560E+03  0.2560E+03
      2.127  0.0000E+00  0.0000E+00  0.2560E+03  0.2560E+03
      2.309  0.0000E+00  0.0000E+00  0.2560E+03  0.2560E+03
      2.492  0.0000E+00  0.0000E+00  0.2560E+03  0.2560E+03
      2.674  0.0000E+00  0.0000E+00  0.2560E+03  0.2560E+03
      2.856  0.0000E+00  0.0000E+00  0.2560E+03  0.2560E+03
      3.039  0.0000E+00  0.0000E+00  0.2560E+03  0.2560E+03
      3.221  0.0000E+00  0.0000E+00  0.2560E+03  0.2560E+03
