   55   55    1    2
  0.1454545E+03  0.2000000E-08  0.2000000E-08  0.2000000E-08  0.5000000E-15
  1.000000000000000E-004
  CAR 
 c2_oh2_ruthenium_mol                    
    166      1    128
 
  0.0000000E+00  0.0000000E+00  0.0000000E+00  0.1000000E+01
    1      -49.012022    -49.012022
    2      -48.893423    -48.893423
    3      -48.647403    -48.647403
    4      -29.137002    -29.137002
    5      -27.131411    -27.131411
    6      -26.855055    -26.855055
    7      -26.726754    -26.726754
    8      -26.123807    -26.123807
    9      -26.069790    -26.069790
   10      -24.115887    -24.115887
   11      -22.419218    -22.419218
   12      -22.352784    -22.352784
   13      -22.289885    -22.289885
   14      -22.247863    -22.247863
   15      -22.206278    -22.206278
   16      -22.162067    -22.162067
   17      -22.135532    -22.135532
   18      -20.766038    -20.766038
   19      -20.733427    -20.733427
   20      -19.202501    -19.202501
   21      -19.069315    -19.069315
   22      -18.701268    -18.701268
   23      -18.651489    -18.651489
   24      -18.418996    -18.418996
   25      -18.384977    -18.384977
   26      -17.581949    -17.581949
   27      -17.547236    -17.547236
   28      -17.275643    -17.275643
   29      -17.237173    -17.237173
   30      -16.838359    -16.838359
   31      -16.526567    -16.526567
   32      -15.909442    -15.909442
   33      -15.695385    -15.695385
   34      -15.537245    -15.537245
   35      -14.736504    -14.736504
   36      -14.702706    -14.702706
   37      -14.681581    -14.681581
   38      -14.626242    -14.626242
   39      -14.518414    -14.518414
   40      -14.137296    -14.137296
   41      -13.963473    -13.963474
   42      -13.927458    -13.927458
   43      -13.889602    -13.889602
   44      -13.771820    -13.771820
   45      -13.733172    -13.733172
   46      -13.532491    -13.532491
   47      -13.502017    -13.502017
   48      -13.347073    -13.347073
   49      -13.207413    -13.207413
   50      -13.091403    -13.091403
   51      -12.941304    -12.941304
   52      -12.861232    -12.861232
   53      -12.750117    -12.750117
   54      -12.724645    -12.724645
   55      -12.524961    -12.524961
   56      -12.448233    -12.448233
   57      -12.343186    -12.343186
   58      -12.205113    -12.205113
   59      -12.110941    -12.110941
   60      -12.046209    -12.046209
   61      -11.425695    -11.425695
   62      -11.284709    -11.284709
   63      -11.217136    -11.217136
   64      -11.154757    -11.154757
   65      -11.056076    -11.056076
   66      -11.030327    -11.030327
   67      -11.008443    -11.008443
   68      -10.642172    -10.642172
   69      -10.397115    -10.397115
   70      -10.082943    -10.082944
   71       -9.911353     -9.911353
   72       -9.834816     -9.834816
   73       -9.774275     -9.774275
   74       -9.770057     -9.770057
   75       -9.717366     -9.717366
   76       -9.669736     -9.669736
   77       -9.630371     -9.630371
   78       -9.465119     -9.465119
   79       -8.363115     -8.363115
   80       -8.317935     -8.317935
   81       -7.392907     -7.392907
   82       -7.185461     -7.185461
   83       -7.045200     -7.045200
   84       -5.553681     -5.553681
   85       -4.965016     -4.965016
   86       -4.894575     -4.894575
   87       -4.553959     -4.553958
   88       -4.198892     -4.198892
   89       -4.040551     -4.040551
   90       -3.948433     -3.948433
   91       -3.892136     -3.892136
   92       -3.745725     -3.745725
   93       -3.116671     -3.116672
   94       -2.824636     -2.824637
   95       -2.740420     -2.740420
   96       -2.637524     -2.637524
   97       -1.926589     -1.926589
   98       -1.627898     -1.627899
   99       -1.557219     -1.557220
  100       -1.393369     -1.393368
  101       -1.199601     -1.199600
  102       -1.191975     -1.191975
  103       -1.126756     -1.126758
  104       -1.020001     -1.020002
  105       -0.864541     -0.864545
  106       -0.797939     -0.797941
  107       -0.779985     -0.779988
  108       -0.680110     -0.680110
  109       -0.540332     -0.540332
  110       -0.416978     -0.416977
  111       -0.386514     -0.386512
  112       -0.351936     -0.351936
  113       -0.310436     -0.310435
  114       -0.145340     -0.145336
  115       -0.124466     -0.124464
  116       -0.069752     -0.069751
  117        0.033156      0.033157
  118        0.129892      0.129895
  119        0.251916      0.251918
  120        0.348578      0.348573
  121        0.380641      0.380642
  122        0.469777      0.469786
  123        0.502172      0.502168
  124        0.579369      0.579364
  125        0.605039      0.605045
  126        0.661002      0.661004
  127        0.719294      0.719276
  128        0.733817      0.733791
