       N       E                     dE             d eps       ncg     rms          rms(c)
DAV:   1     0.908814461034E+03    0.90881E+03   -0.58815E+04   768   0.974E+02
DAV:   2    -0.689848104272E+02   -0.97780E+03   -0.97138E+03  1024   0.160E+02
DAV:   3    -0.390928058423E+03   -0.32194E+03   -0.32153E+03   768   0.849E+01
DAV:   4    -0.412692690797E+03   -0.21765E+02   -0.21736E+02   768   0.262E+01
DAV:   5    -0.412919713575E+03   -0.22702E+00   -0.22655E+00   768   0.311E+00    0.580E+01
DAV:   6    -0.394574195832E+03    0.18346E+02   -0.40236E+02   640   0.237E+01    0.397E+01
DAV:   7    -0.383359631047E+03    0.11215E+02   -0.22836E+01   640   0.218E+01    0.242E+01
DAV:   8    -0.378992383525E+03    0.43672E+01   -0.18182E+01   768   0.106E+01    0.100E+01
DAV:   9    -0.377714911910E+03    0.12775E+01   -0.44571E+00   768   0.452E+00    0.370E+00
DAV:  10    -0.377663712725E+03    0.51199E-01   -0.63531E-01   768   0.183E+00    0.258E+00
DAV:  11    -0.377527793727E+03    0.13592E+00   -0.16827E-01   768   0.986E-01    0.106E+00
DAV:  12    -0.377451498200E+03    0.76296E-01   -0.10194E-01   768   0.703E-01    0.707E-01
DAV:  13    -0.377436494860E+03    0.15003E-01   -0.15008E-02   768   0.335E-01    0.517E-01
DAV:  14    -0.377427562709E+03    0.89322E-02   -0.15024E-02   768   0.309E-01    0.304E-01
DAV:  15    -0.377430161390E+03   -0.25987E-02   -0.55950E-03   768   0.207E-01    0.217E-01
DAV:  16    -0.377440847820E+03   -0.10686E-01   -0.26848E-03   768   0.159E-01    0.108E-01
DAV:  17    -0.377446709115E+03   -0.58613E-02   -0.78425E-04   768   0.888E-02    0.803E-02
DAV:  18    -0.377451620883E+03   -0.49118E-02   -0.36981E-04   768   0.593E-02    0.575E-02
DAV:  19    -0.377455424711E+03   -0.38038E-02   -0.26605E-04   640   0.463E-02    0.358E-02
DAV:  20    -0.377457575206E+03   -0.21505E-02   -0.80627E-05   768   0.274E-02    0.227E-02
DAV:  21    -0.377459246894E+03   -0.16717E-02   -0.54673E-05   512   0.205E-02    0.124E-02
DAV:  22    -0.377460156268E+03   -0.90937E-03   -0.26221E-05   768   0.125E-02    0.101E-02
DAV:  23    -0.377460733377E+03   -0.57711E-03   -0.10223E-05   384   0.748E-03    0.618E-03
DAV:  24    -0.377461080152E+03   -0.34677E-03   -0.85786E-06   640   0.596E-03    0.306E-03
DAV:  25    -0.377461224059E+03   -0.14391E-03   -0.22096E-06   640   0.306E-03    0.235E-03
DAV:  26    -0.377461359383E+03   -0.13532E-03   -0.22000E-06   640   0.281E-03    0.137E-03
DAV:  27    -0.377461417672E+03   -0.58289E-04   -0.84185E-07   640   0.172E-03    0.105E-03
DAV:  28    -0.377461439716E+03   -0.22044E-04   -0.92194E-08   640   0.869E-04    0.651E-04
DAV:  29    -0.377461460084E+03   -0.20368E-04   -0.11766E-07   640   0.852E-04    0.396E-04
DAV:  30    -0.377461473025E+03   -0.12942E-04   -0.36290E-08   640   0.667E-04    0.236E-04
DAV:  31    -0.377461478411E+03   -0.53857E-05    0.75488E-08   640   0.368E-04
   1 F= -.37746148E+03 E0= -.37746148E+03  d E =-.335189E-43  mag=     0.0000
