 vasp.5.3.5 31Mar14 (build Apr 08 2014 12:00:03) complex                        
  
 VASP binary ID code NSC-NSCPATCH-BUILD02 date 2017.03.15  18:38:24
 running on   64 total cores
 distrk:  each k-point on   64 cores,    1 groups
 distr:  one band on NCORES_PER_BAND=   1 cores,   64 groups


--------------------------------------------------------------------------------------------------------


 INCAR:
 POTCAR:    PAW_PBE C_h 06Feb2004                 
 POTCAR:    PAW_PBE C_h 06Feb2004                 
 POTCAR:    PAW_PBE H 15Jun2001                   
 POTCAR:    PAW_PBE N_h 06Feb2004                 
 POTCAR:    PAW_PBE O_h 06Feb2004                 
 POTCAR:    PAW_PBE Ru_pv 28Jan2005               

 ----------------------------------------------------------------------------- 
|                                                                             |
|           W    W    AA    RRRRR   N    N  II  N    N   GGGG   !!!           |
|           W    W   A  A   R    R  NN   N  II  NN   N  G    G  !!!           |
|           W    W  A    A  R    R  N N  N  II  N N  N  G       !!!           |
|           W WW W  AAAAAA  RRRRR   N  N N  II  N  N N  G  GGG   !            |
|           WW  WW  A    A  R   R   N   NN  II  N   NN  G    G                |
|           W    W  A    A  R    R  N    N  II  N    N   GGGG   !!!           |
|                                                                             |
|      For optimal performance we recommend to set                            |
|        NCORE= 4 - approx SQRT( number of cores)                             |
|      NCORE specifies how many cores store one orbital (NPAR=cpu/NCORE).     |
|      This setting can  greatly improve the performance of VASP for DFT.     |
|      The default, NPAR=number of cores might be grossly inefficient         |
|      on modern multi-core architectures or massively parallel machines.     |
|      Do your own testing !!!!                                               |
|      Unfortunately you need to use the default for GW and RPA calculations. |
|      (for HF NCORE is supported but not extensively tested yet)             |
|                                                                             |
 ----------------------------------------------------------------------------- 

 POTCAR:    PAW_PBE C_h 06Feb2004                 
   VRHFIN =C: s2p2                                                              
   LEXCH  = PE                                                                  
   EATOM  =   147.1560 eV,   10.8157 Ry                                         
                                                                                
   TITEL  = PAW_PBE C_h 06Feb2004                                               
   LULTRA =        F    use ultrasoft PP ?                                      
   IUNSCR =        1    unscreen: 0-lin 1-nonlin 2-no                           
   RPACOR =    0.800    partial core radius                                     
   POMASS =   12.011; ZVAL   =    4.000    mass and valenz                      
   RCORE  =    1.100    outmost cutoff radius                                   
   RWIGS  =    1.630; RWIGS  =    0.863    wigner-seitz radius (au A)           
   ENMAX  =  700.000; ENMIN  =  500.000 eV                                      
   ICORE  =        2    local potential                                         
   LCOR   =        T    correct aug charges                                     
   LPAW   =        T    paw PP                                                  
   EAUG   =  946.768                                                            
   DEXC   =    0.000                                                            
   RMAX   =    1.128    core radius for proj-oper                               
   RAUG   =    1.300    factor for augmentation sphere                          
   RDEP   =    1.162    radius for radial grids                                 
   RDEPT  =    1.088    core radius for aug-charge                              
                                                                                
   Atomic configuration                                                         
    4 entries                                                                   
     n  l   j            E        occ.                                          
     1  0  0.50      -273.3789   2.0000                                         
     2  0  0.50       -13.7508   2.0000                                         
     2  1  0.50        -5.2854   2.0000                                         
     3  2  1.50        -5.4423   0.0000                                         
   Description                                                                  
     l       E           TYP  RCUT    TYP  RCUT                                 
     0    -13.7508458     23  1.100                                             
     0     -8.2022199     23  1.100                                             
     1     -5.2854383     23  1.100                                             
     1      1.1560700     23  1.100                                             
     2     -5.4423304      7  1.100                                             
  local pseudopotential read in
  partial core-charges read in
  partial kinetic energy density read in
  atomic valenz-charges read in
  non local Contribution for L=           0  read in
    real space projection operators read in
  non local Contribution for L=           0  read in
    real space projection operators read in
  non local Contribution for L=           1  read in
    real space projection operators read in
  non local Contribution for L=           1  read in
    real space projection operators read in
    PAW grid and wavefunctions read in
 
   number of l-projection  operators is LMAX  =           4
   number of lm-projection operators is LMMAX =           8
 
 POTCAR:    PAW_PBE C_h 06Feb2004                 
   VRHFIN =C: s2p2                                                              
   LEXCH  = PE                                                                  
   EATOM  =   147.1560 eV,   10.8157 Ry                                         
                                                                                
   TITEL  = PAW_PBE C_h 06Feb2004                                               
   LULTRA =        F    use ultrasoft PP ?                                      
   IUNSCR =        1    unscreen: 0-lin 1-nonlin 2-no                           
   RPACOR =    0.800    partial core radius                                     
   POMASS =   12.011; ZVAL   =    4.000    mass and valenz                      
   RCORE  =    1.100    outmost cutoff radius                                   
   RWIGS  =    1.630; RWIGS  =    0.863    wigner-seitz radius (au A)           
   ENMAX  =  700.000; ENMIN  =  500.000 eV                                      
   ICORE  =        2    local potential                                         
   LCOR   =        T    correct aug charges                                     
   LPAW   =        T    paw PP                                                  
   EAUG   =  946.768                                                            
   DEXC   =    0.000                                                            
   RMAX   =    1.128    core radius for proj-oper                               
   RAUG   =    1.300    factor for augmentation sphere                          
   RDEP   =    1.162    radius for radial grids                                 
   RDEPT  =    1.088    core radius for aug-charge                              
                                                                                
   Atomic configuration                                                         
    4 entries                                                                   
     n  l   j            E        occ.                                          
     1  0  0.50      -273.3789   2.0000                                         
     2  0  0.50       -13.7508   2.0000                                         
     2  1  0.50        -5.2854   2.0000                                         
     3  2  1.50        -5.4423   0.0000                                         
   Description                                                                  
     l       E           TYP  RCUT    TYP  RCUT                                 
     0    -13.7508458     23  1.100                                             
     0     -8.2022199     23  1.100                                             
     1     -5.2854383     23  1.100                                             
     1      1.1560700     23  1.100                                             
     2     -5.4423304      7  1.100                                             
  local pseudopotential read in
  partial core-charges read in
  partial kinetic energy density read in
  atomic valenz-charges read in
  non local Contribution for L=           0  read in
    real space projection operators read in
  non local Contribution for L=           0  read in
    real space projection operators read in
  non local Contribution for L=           1  read in
    real space projection operators read in
  non local Contribution for L=           1  read in
    real space projection operators read in
    PAW grid and wavefunctions read in
 
   number of l-projection  operators is LMAX  =           4
   number of lm-projection operators is LMMAX =           8
 
 POTCAR:    PAW_PBE H 15Jun2001                   
   VRHFIN =H: ultrasoft test                                                    
   LEXCH  = PE                                                                  
   EATOM  =    12.4884 eV,    0.9179 Ry                                         
                                                                                
   TITEL  = PAW_PBE H 15Jun2001                                                 
   LULTRA =        F    use ultrasoft PP ?                                      
   IUNSCR =        0    unscreen: 0-lin 1-nonlin 2-no                           
   RPACOR =    0.000    partial core radius                                     
   POMASS =    1.000; ZVAL   =    1.000    mass and valenz                      
   RCORE  =    1.100    outmost cutoff radius                                   
   RWIGS  =    0.700; RWIGS  =    0.370    wigner-seitz radius (au A)           
   ENMAX  =  250.000; ENMIN  =  200.000 eV                                      
   RCLOC  =    0.701    cutoff for local pot                                    
   LCOR   =        T    correct aug charges                                     
   LPAW   =        T    paw PP                                                  
   EAUG   =  400.000                                                            
   RMAX   =    1.123    core radius for proj-oper                               
   RAUG   =    1.200    factor for augmentation sphere                          
   RDEP   =    1.112    radius for radial grids                                 
   RDEPT  =    0.926    core radius for aug-charge                              
                                                                                
   Atomic configuration                                                         
    2 entries                                                                   
     n  l   j            E        occ.                                          
     1  0  0.50        -6.4927   1.0000                                         
     2  1  0.50        -3.4015   0.0000                                         
   Description                                                                  
     l       E           TYP  RCUT    TYP  RCUT                                 
     0     -6.4927494     23  1.100                                             
     0      6.8029130     23  1.100                                             
     1     -4.0817478     23  1.100                                             
  local pseudopotential read in
  atomic valenz-charges read in
  non local Contribution for L=           0  read in
    real space projection operators read in
  non local Contribution for L=           0  read in
    real space projection operators read in
  non local Contribution for L=           1  read in
    real space projection operators read in
    PAW grid and wavefunctions read in
 
   number of l-projection  operators is LMAX  =           3
   number of lm-projection operators is LMMAX =           5
 
 POTCAR:    PAW_PBE N_h 06Feb2004                 
   VRHFIN =N: s2p3                                                              
   LEXCH  = PE                                                                  
   EATOM  =   264.5486 eV,   19.4438 Ry                                         
                                                                                
   TITEL  = PAW_PBE N_h 06Feb2004                                               
   LULTRA =        F    use ultrasoft PP ?                                      
   IUNSCR =        1    unscreen: 0-lin 1-nonlin 2-no                           
   RPACOR =    0.800    partial core radius                                     
   POMASS =   14.001; ZVAL   =    5.000    mass and valenz                      
   RCORE  =    1.100    outmost cutoff radius                                   
   RWIGS  =    1.480; RWIGS  =    0.783    wigner-seitz radius (au A)           
   ENMAX  =  700.000; ENMIN  =  500.000 eV                                      
   ICORE  =        2    local potential                                         
   LCOR   =        T    correct aug charges                                     
   LPAW   =        T    paw PP                                                  
   EAUG   =  904.640                                                            
   DEXC   =    0.000                                                            
   RMAX   =    1.127    core radius for proj-oper                               
   RAUG   =    1.300    factor for augmentation sphere                          
   RDEP   =    1.115    radius for radial grids                                 
   RDEPT  =    1.106    core radius for aug-charge                              
                                                                                
   Atomic configuration                                                         
    4 entries                                                                   
     n  l   j            E        occ.                                          
     1  0  0.50      -384.7179   2.0000                                         
     2  0  0.50       -18.5828   2.0000                                         
     2  1  0.50        -7.0898   3.0000                                         
     3  2  1.50        -6.8029   0.0000                                         
   Description                                                                  
     l       E           TYP  RCUT    TYP  RCUT                                 
     0    -18.5828117     23  1.100                                             
     0    -15.0750597     23  1.100                                             
     1     -7.0897851     23  1.100                                             
     1     -1.9663412     23  1.100                                             
     2     -6.8029130      7  1.100                                             
  local pseudopotential read in
  partial core-charges read in
  partial kinetic energy density read in
  kinetic energy density of atom read in
  atomic valenz-charges read in
  non local Contribution for L=           0  read in
    real space projection operators read in
  non local Contribution for L=           0  read in
    real space projection operators read in
  non local Contribution for L=           1  read in
    real space projection operators read in
  non local Contribution for L=           1  read in
    real space projection operators read in
    PAW grid and wavefunctions read in
 
   number of l-projection  operators is LMAX  =           4
   number of lm-projection operators is LMMAX =           8
 
 POTCAR:    PAW_PBE O_h 06Feb2004                 
   VRHFIN =O: s2p4                                                              
   LEXCH  = PE                                                                  
   EATOM  =   432.3788 eV,   31.7789 Ry                                         
                                                                                
   TITEL  = PAW_PBE O_h 06Feb2004                                               
   LULTRA =        F    use ultrasoft PP ?                                      
   IUNSCR =        1    unscreen: 0-lin 1-nonlin 2-no                           
   RPACOR =    0.800    partial core radius                                     
   POMASS =   16.000; ZVAL   =    6.000    mass and valenz                      
   RCORE  =    1.100    outmost cutoff radius                                   
   RWIGS  =    1.400; RWIGS  =    0.741    wigner-seitz radius (au A)           
   ENMAX  =  700.000; ENMIN  =  500.000 eV                                      
   ICORE  =        2    local potential                                         
   LCOR   =        T    correct aug charges                                     
   LPAW   =        T    paw PP                                                  
   EAUG   =  888.804                                                            
   DEXC   =    0.000                                                            
   RMAX   =    1.128    core radius for proj-oper                               
   RAUG   =    1.300    factor for augmentation sphere                          
   RDEP   =    1.125    radius for radial grids                                 
   RDEPT  =    1.088    core radius for aug-charge                              
                                                                                
   Atomic configuration                                                         
    4 entries                                                                   
     n  l   j            E        occ.                                          
     1  0  0.50      -514.6923   2.0000                                         
     2  0  0.50       -23.9615   2.0000                                         
     2  1  0.50        -9.0305   4.0000                                         
     3  2  1.50        -9.5241   0.0000                                         
   Description                                                                  
     l       E           TYP  RCUT    TYP  RCUT                                 
     0    -23.9615319     23  1.100                                             
     0    -25.3221145     23  1.100                                             
     1     -9.0304911     23  1.100                                             
     1     -5.4802209     23  1.100                                             
     2     -9.5240782      7  1.100                                             
  local pseudopotential read in
  partial core-charges read in
  partial kinetic energy density read in
  atomic valenz-charges read in
  non local Contribution for L=           0  read in
    real space projection operators read in
  non local Contribution for L=           0  read in
    real space projection operators read in
  non local Contribution for L=           1  read in
    real space projection operators read in
  non local Contribution for L=           1  read in
    real space projection operators read in
    PAW grid and wavefunctions read in
 
   number of l-projection  operators is LMAX  =           4
   number of lm-projection operators is LMMAX =           8
 
 POTCAR:    PAW_PBE Ru_pv 28Jan2005               
   VRHFIN =Ru: 4p5s4d                                                           
   LEXCH  = PE                                                                  
   EATOM  =  1873.4746 eV,  137.6965 Ry                                         
                                                                                
   TITEL  = PAW_PBE Ru_pv 28Jan2005                                             
   LULTRA =        F    use ultrasoft PP ?                                      
   IUNSCR =        1    unscreen: 0-lin 1-nonlin 2-no                           
   RPACOR =    2.170    partial core radius                                     
   POMASS =  101.070; ZVAL   =   14.000    mass and valenz                      
   RCORE  =    2.500    outmost cutoff radius                                   
   RWIGS  =    2.650; RWIGS  =    1.402    wigner-seitz radius (au A)           
   ENMAX  =  240.049; ENMIN  =  180.037 eV                                      
   ICORE  =        3    local potential                                         
   LCOR   =        T    correct aug charges                                     
   LPAW   =        T    paw PP                                                  
   EAUG   =  430.792                                                            
   DEXC   =    0.000                                                            
   RMAX   =    2.546    core radius for proj-oper                               
   RAUG   =    1.300    factor for augmentation sphere                          
   RDEP   =    2.520    radius for radial grids                                 
   RDEPT  =    2.044    core radius for aug-charge                              
                                                                                
   Atomic configuration                                                         
   11 entries                                                                   
     n  l   j            E        occ.                                          
     1  0  0.50    -21933.2692   2.0000                                         
     2  0  0.50     -3153.4096   2.0000                                         
     2  1  1.50     -2823.9548   6.0000                                         
     3  0  0.50      -555.3322   2.0000                                         
     3  1  1.50      -447.1024   6.0000                                         
     3  2  2.50      -273.0570  10.0000                                         
     4  0  0.50       -76.3589   2.0000                                         
     4  1  1.50       -46.4050   6.0000                                         
     4  2  2.50        -5.2029   7.0000                                         
     5  0  0.50        -4.2392   1.0000                                         
     4  3  2.50        -1.3606   0.0000                                         
   Description                                                                  
     l       E           TYP  RCUT    TYP  RCUT                                 
     1    -46.4050190     23  2.100                                             
     1      4.0817478     23  2.100                                             
     2     -5.2028758     23  2.500                                             
     2     -6.5634584     23  2.500                                             
     0     -4.2392192     23  2.500                                             
     0      7.0918828     23  2.500                                             
     3     -5.4423304     23  2.500                                             
  local pseudopotential read in
  partial core-charges read in
  partial kinetic energy density read in
  atomic valenz-charges read in
  non local Contribution for L=           1  read in
    real space projection operators read in
  non local Contribution for L=           1  read in
    real space projection operators read in
  non local Contribution for L=           2  read in
    real space projection operators read in
  non local Contribution for L=           2  read in
    real space projection operators read in
  non local Contribution for L=           0  read in
    real space projection operators read in
  non local Contribution for L=           0  read in
    real space projection operators read in
    PAW grid and wavefunctions read in
 
   number of l-projection  operators is LMAX  =           6
   number of lm-projection operators is LMMAX =          18
 
 Optimization of the real space projectors (new method)

 maximal supplied QI-value         = 34.20
 optimisation between [QCUT,QGAM] = [ 13.34, 27.02] = [ 49.83,204.46] Ry 
 Optimized for a Real-space Cutoff    1.04 Angstroem

   l    n(q)    QCUT    max X(q) W(low)/X(q) W(high)/X(q)  e(spline) 
   0      8    13.340   134.812    0.72E-04    0.21E-03    0.27E-06
   0      8    13.340    80.524    0.70E-04    0.21E-03    0.27E-06
   1      8    13.340    79.026    0.21E-03    0.16E-03    0.33E-06
   1      8    13.340    45.188    0.20E-03    0.15E-03    0.33E-06
 Optimization of the real space projectors (new method)

 maximal supplied QI-value         = 34.20
 optimisation between [QCUT,QGAM] = [ 13.34, 27.02] = [ 49.83,204.46] Ry 
 Optimized for a Real-space Cutoff    1.04 Angstroem

   l    n(q)    QCUT    max X(q) W(low)/X(q) W(high)/X(q)  e(spline) 
   0      8    13.340   134.812    0.72E-04    0.21E-03    0.27E-06
   0      8    13.340    80.524    0.70E-04    0.21E-03    0.27E-06
   1      8    13.340    79.026    0.21E-03    0.16E-03    0.33E-06
   1      8    13.340    45.188    0.20E-03    0.15E-03    0.33E-06
 Optimization of the real space projectors (new method)

 maximal supplied QI-value         = 34.20
 optimisation between [QCUT,QGAM] = [ 13.34, 27.02] = [ 49.83,204.46] Ry 
 Optimized for a Real-space Cutoff    0.98 Angstroem

   l    n(q)    QCUT    max X(q) W(low)/X(q) W(high)/X(q)  e(spline) 
   0      8    13.340    19.460    0.18E-03    0.41E-04    0.19E-06
   0      8    13.340    12.209    0.17E-03    0.45E-04    0.18E-06
   1      7    13.340     4.655    0.16E-03    0.30E-03    0.14E-06
 Optimization of the real space projectors (new method)

 maximal supplied QI-value         = 34.20
 optimisation between [QCUT,QGAM] = [ 13.34, 27.02] = [ 49.83,204.46] Ry 
 Optimized for a Real-space Cutoff    1.04 Angstroem

   l    n(q)    QCUT    max X(q) W(low)/X(q) W(high)/X(q)  e(spline) 
   0      8    13.340   148.539    0.85E-04    0.19E-03    0.21E-06
   0      8    13.340   106.192    0.84E-04    0.19E-03    0.21E-06
   1      8    13.340    73.877    0.18E-03    0.11E-03    0.36E-06
   1      8    13.340    50.042    0.17E-03    0.11E-03    0.36E-06
 Optimization of the real space projectors (new method)

 maximal supplied QI-value         = 34.20
 optimisation between [QCUT,QGAM] = [ 13.34, 27.02] = [ 49.83,204.46] Ry 
 Optimized for a Real-space Cutoff    0.98 Angstroem

   l    n(q)    QCUT    max X(q) W(low)/X(q) W(high)/X(q)  e(spline) 
   0      8    13.340   280.207    0.16E-03    0.35E-03    0.14E-06
   0      8    13.340   228.978    0.16E-03    0.35E-03    0.14E-06
   1      7    13.340    86.127    0.23E-03    0.25E-04    0.30E-06
   1      7    13.340    65.368    0.22E-03    0.27E-04    0.30E-06
 Optimization of the real space projectors (new method)

 maximal supplied QI-value         = 15.12
 optimisation between [QCUT,QGAM] = [ 13.45, 27.06] = [ 50.69,205.06] Ry 
 Optimized for a Real-space Cutoff    1.40 Angstroem

   l    n(q)    QCUT    max X(q) W(low)/X(q) W(high)/X(q)  e(spline) 
   1     11    13.455     3.180    0.18E-04    0.25E-04    0.55E-07
   1     11    13.455     5.351    0.12E-03    0.15E-03    0.24E-06
   2     10    13.455    66.565    0.13E-03    0.46E-04    0.26E-06
   2     10    13.455    63.466    0.13E-03    0.47E-04    0.27E-06
   0     11    13.455    85.644    0.47E-04    0.16E-04    0.33E-06
   0     11    13.455    44.119    0.43E-04    0.15E-04    0.30E-06
  PAW_PBE C_h 06Feb2004                 :
 energy of atom  1       EATOM= -147.1560
 kinetic energy error for atom=    0.0286 (will be added to EATOM!!)
  PAW_PBE C_h 06Feb2004                 :
 energy of atom  2       EATOM= -147.1560
 kinetic energy error for atom=    0.0286 (will be added to EATOM!!)
  PAW_PBE H 15Jun2001                   :
 energy of atom  3       EATOM=  -12.4884
 kinetic energy error for atom=    0.0002 (will be added to EATOM!!)
  PAW_PBE N_h 06Feb2004                 :
 energy of atom  4       EATOM= -264.5486
 kinetic energy error for atom=    0.0847 (will be added to EATOM!!)
  PAW_PBE O_h 06Feb2004                 :
 energy of atom  5       EATOM= -432.3788
 kinetic energy error for atom=    0.1855 (will be added to EATOM!!)
  PAW_PBE Ru_pv 28Jan2005               :
 energy of atom  6       EATOM=-1873.4746
 kinetic energy error for atom=    0.0017 (will be added to EATOM!!)
 
 
 POSCAR: C C H N O Ru                            
  positions in direct lattice
  velocities in cartesian coordinates
 exchange correlation table for  LEXCH =        8
   RHO(1)=    0.500       N(1)  =     2000
   RHO(2)=  100.500       N(2)  =     4000
 


--------------------------------------------------------------------------------------------------------


 ion  position               nearest neighbor table
   1  0.438  0.635  0.337-  32 1.09   2 1.39   5 1.40
   2  0.438  0.566  0.328-  43 1.09   3 1.39   1 1.39
   3  0.456  0.524  0.381-  38 1.09  49 1.36   2 1.39
   4  0.474  0.615  0.450-  34 1.09  49 1.36   5 1.39
   5  0.456  0.660  0.399-  33 1.09   4 1.39   1 1.40
   6  0.293  0.477  0.568-  45 1.09  25 1.39  17 1.40
   7  0.523  0.330  0.675-  26 1.09   8 1.39  16 1.40
   8  0.497  0.372  0.626-  31 1.09  51 1.36   7 1.39
   9  0.602  0.419  0.606-  51 1.37  10 1.40  14 1.47
  10  0.631  0.378  0.654-  28 1.09  16 1.39   9 1.40
  11  0.740  0.529  0.535-  41 1.09  15 1.39  12 1.40
  12  0.701  0.566  0.490-  37 1.09  13 1.39  11 1.40
  13  0.633  0.554  0.487-  47 1.09  53 1.36  12 1.39
  14  0.640  0.469  0.567-  53 1.37  15 1.40   9 1.47
  15  0.708  0.480  0.573-  36 1.09  11 1.39  14 1.40
  16  0.591  0.332  0.689-  27 1.09  10 1.39   7 1.40
  17  0.362  0.489  0.564-  50 1.37   6 1.40  21 1.46
  18  0.408  0.622  0.691-  48 1.09  22 1.39  19 1.40
  19  0.476  0.626  0.677-  44 1.09  20 1.39  18 1.40
  20  0.503  0.586  0.627-  42 1.09  52 1.36  19 1.39
  21  0.398  0.538  0.604-  52 1.38  22 1.40  17 1.46
  22  0.369  0.578  0.654-  30 1.09  18 1.39  21 1.40
  23  0.373  0.406  0.482-  39 1.09  50 1.35  24 1.39
  24  0.305  0.392  0.484-  40 1.09  23 1.39  25 1.40
  25  0.264  0.428  0.528-  46 1.09   6 1.39  24 1.40
  26  0.490  0.295  0.701-   7 1.09
  27  0.613  0.300  0.727-  16 1.09
  28  0.684  0.381  0.665-  10 1.09
  29  0.542  0.362  0.461-  54 0.97
  30  0.316  0.573  0.664-  22 1.09
  31  0.444  0.371  0.614-   8 1.09
  32  0.424  0.668  0.296-   1 1.09
  33  0.456  0.713  0.410-   5 1.09
  34  0.488  0.634  0.499-   4 1.09
  35  0.569  0.418  0.415-  54 0.98
  36  0.738  0.450  0.608-  15 1.09
  37  0.723  0.605  0.459-  12 1.09
  38  0.456  0.470  0.375-   3 1.09
  39  0.406  0.379  0.449-  23 1.09
  40  0.284  0.353  0.452-  24 1.09
  41  0.793  0.537  0.539-  11 1.09
  42  0.556  0.588  0.614-  20 1.09
  43  0.424  0.543  0.280-   2 1.09
  44  0.509  0.660  0.704-  19 1.09
  45  0.263  0.506  0.603-   6 1.09
  46  0.211  0.418  0.531-  25 1.09
  47  0.601  0.582  0.453-  13 1.09
  48  0.385  0.653  0.729-  18 1.09
  49  0.474  0.548  0.441-   4 1.36   3 1.36  55 2.12
  50  0.402  0.453  0.521-  23 1.35  17 1.37  55 2.06
  51  0.535  0.416  0.592-   8 1.36   9 1.37  55 2.06
  52  0.465  0.543  0.590-  20 1.36  21 1.38  55 2.01
  53  0.601  0.507  0.524-  13 1.36  14 1.37  55 2.08
  54  0.531  0.406  0.442-  29 0.97  35 0.98  55 2.24
  55  0.501  0.481  0.519-  52 2.01  50 2.06  51 2.06  53 2.08  49 2.12  54 2.24
 
  LATTYP: Found a simple cubic cell.
 ALAT       =    20.0000000000
  
  Lattice vectors:
  
 A1 = (  20.0000000000,   0.0000000000,   0.0000000000)
 A2 = (   0.0000000000,  20.0000000000,   0.0000000000)
 A3 = (   0.0000000000,   0.0000000000,  20.0000000000)


Analysis of symmetry for initial positions (statically):
=====================================================================
 Subroutine PRICEL returns:
 Original cell was already a primitive cell.
 

 Routine SETGRP: Setting up the symmetry group for a 
 simple cubic supercell.


 Subroutine GETGRP returns: Found  1 space group operations
 (whereof  1 operations were pure point group operations)
 out of a pool of 48 trial point group operations.


The static configuration has the point symmetry C_1 .


Analysis of symmetry for dynamics (positions and initial velocities):
=====================================================================
 Subroutine PRICEL returns:
 Original cell was already a primitive cell.
 

 Routine SETGRP: Setting up the symmetry group for a 
 simple cubic supercell.


 Subroutine GETGRP returns: Found  1 space group operations
 (whereof  1 operations were pure point group operations)
 out of a pool of 48 trial point group operations.


The dynamic configuration has the point symmetry C_1 .


Analysis of constrained symmetry for selective dynamics:
=====================================================================
 Subroutine PRICEL returns:
 Original cell was already a primitive cell.
 

 Routine SETGRP: Setting up the symmetry group for a 
 simple cubic supercell.


 Subroutine GETGRP returns: Found  1 space group operations
 (whereof  1 operations were pure point group operations)
 out of a pool of 48 trial point group operations.


The constrained configuration has the point symmetry C_1 .


Analysis of magnetic symmetry:
=====================================================================
 Subroutine PRICEL returns:
 Original cell was already a primitive cell.
 

 Subroutine MAGSYM returns: Found  1 space group operations
 (whereof  1 operations were pure point group operations)
 out of a pool of  1 trial space group operations
 (whereof  1 operations were pure point group operations)
 and found also     1 'primitive' translations


The magnetic configuration has the point symmetry C_1 .
 
 
 KPOINTS: K-Points                                

Automatic generation of k-mesh.
Space group operators:
 irot       det(A)        alpha          n_x          n_y          n_z        tau_x        tau_y        tau_z
    1     1.000000     0.000000     1.000000     0.000000     0.000000     0.000000     0.000000     0.000000
 
 Subroutine IBZKPT returns following result:
 ===========================================
 
 Found      1 irreducible k-points:
 
 Following reciprocal coordinates:
            Coordinates               Weight
  0.000000  0.000000  0.000000      1.000000
 
 Following cartesian coordinates:
            Coordinates               Weight
  0.000000  0.000000  0.000000      1.000000
 


--------------------------------------------------------------------------------------------------------




 Dimension of arrays:
   k-points           NKPTS =      1   k-points in BZ     NKDIM =      1   number of bands    NBANDS=    128
   number of dos      NEDOS =    301   number of ions     NIONS =     55
   non local maximal  LDIM  =      6   non local SUM 2l+1 LMDIM =     18
   total plane-waves  NPLWV = ******
   max r-space proj   IRMAX =   8473   max aug-charges    IRDMAX= 268848
   dimension x,y,z NGX =   180 NGY =  180 NGZ =  180
   dimension x,y,z NGXF=   360 NGYF=  360 NGZF=  360
   support grid    NGXF=   720 NGYF=  720 NGZF=  720
   ions per type =               1  24  23   5   1   1
 NGX,Y,Z   is equivalent  to a cutoff of  14.96, 14.96, 14.96 a.u.
 NGXF,Y,Z  is equivalent  to a cutoff of  29.92, 29.92, 29.92 a.u.


 I would recommend the setting:
   dimension x,y,z NGX =   173 NGY =  173 NGZ =  173
 SYSTEM =  c2_oh2_ruthenium_mol                    
 POSCAR =  C C H N O Ru                            

 Startparameter for this run:
   NWRITE =      2    write-flag & timer
   PREC   = accura    normal or accurate (medium, high low for compatibility)
   ISTART =      0    job   : 0-new  1-cont  2-samecut
   ICHARG =      2    charge: 1-file 2-atom 10-const
   ISPIN  =      2    spin polarized calculation?
   LNONCOLLINEAR =      F non collinear calculations
   LSORBIT =      F    spin-orbit coupling
   INIWAV =      1    electr: 0-lowe 1-rand  2-diag
   LASPH  =      F    aspherical Exc in radial PAW
   METAGGA=      F    non-selfconsistent MetaGGA calc.

 Electronic Relaxation 1
   ENCUT  =  700.0 eV  51.45 Ry    7.17 a.u.  43.15 43.15 43.15*2*pi/ulx,y,z
   ENINI  =  700.0     initial cutoff
   ENAUG  =  946.8 eV  augmentation charge cutoff
   NELM   =     60;   NELMIN=  2; NELMDL= -5     # of ELM steps 
   EDIFF  = 0.1E-04   stopping-criterion for ELM
   LREAL  =      T    real-space projection
   NLSPLINE    = F    spline interpolate recip. space projectors
   LCOMPAT=      F    compatible to vasp.4.4
   GGA_COMPAT  = T    GGA compatible to vasp.4.4-vasp.4.6
   LMAXPAW     = -100 max onsite density
   LMAXMIX     =    2 max onsite mixed and CHGCAR
   VOSKOWN=      0    Vosko Wilk Nusair interpolation
   ROPT   =   -0.00025  -0.00025  -0.00025  -0.00025
   ROPT   =   -0.00025  -0.00025
 Ionic relaxation
   EDIFFG = -.1E-01   stopping-criterion for IOM
   NSW    =      0    number of steps for IOM
   NBLOCK =      1;   KBLOCK =      1    inner block; outer block 
   IBRION =     -1    ionic relax: 0-MD 1-quasi-New 2-CG
   NFREE  =      0    steps in history (QN), initial steepest desc. (CG)
   ISIF   =      2    stress and relaxation
   IWAVPR =     10    prediction:  0-non 1-charg 2-wave 3-comb
   ISYM   =      2    0-nonsym 1-usesym 2-fastsym
   LCORR  =      T    Harris-Foulkes like correction to forces

   POTIM  = 0.5000    time-step for ionic-motion
   TEIN   =    0.0    initial temperature
   TEBEG  =    0.0;   TEEND  =   0.0 temperature during run
   SMASS  =  -3.00    Nose mass-parameter (am)
   estimated Nose-frequenzy (Omega)   =  0.10E-29 period in steps =****** mass=  -0.914E-26a.u.
   SCALEE = 1.0000    scale energy and forces
   NPACO  =    256;   APACO  = 16.0  distance and # of slots for P.C.
   PSTRESS=    0.0 pullay stress

  Mass of Ions in am
   POMASS =  12.01 12.01  1.00 14.00 16.00101.07
  Ionic Valenz
   ZVAL   =   4.50  4.00  1.00  5.00  6.00 14.00
  Atomic Wigner-Seitz radii
   RWIGS  =  -1.00 -1.00 -1.00 -1.00 -1.00 -1.00
  virtual crystal weights 
   VCA    =   1.00  1.00  1.00  1.00  1.00  1.00
   NELECT =     166.0000    total number of electrons
   NUPDOWN=       0.0000    fix difference up-down

 DOS related values:
   EMIN   =  10.00;   EMAX   =-10.00  energy-range for DOS
   EFERMI =   0.00
   ISMEAR =     0;   SIGMA  =   0.01  broadening in eV -4-tet -1-fermi 0-gaus

 Electronic relaxation 2 (details)
   IALGO  =     38    algorithm
   LDIAG  =      T    sub-space diagonalisation (order eigenvalues)
   LSUBROT=      F    optimize rotation matrix (better conditioning)
   TURBO    =      0    0=normal 1=particle mesh
   IRESTART =      0    0=no restart 2=restart with 2 vectors
   NREBOOT  =      0    no. of reboots
   NMIN     =      0    reboot dimension
   EREF     =   0.00    reference energy to select bands
   IMIX   =      4    mixing-type and parameters
     AMIX     =   0.40;   BMIX     =  2.00
     AMIX_MAG =   1.60;   BMIX_MAG =  2.00
     AMIN     =   0.10
     WC   =   100.;   INIMIX=   1;  MIXPRE=   1;  MAXMIX= -45

 Intra band minimization:
   WEIMIN = 0.0000     energy-eigenvalue tresh-hold
   EBREAK =  0.20E-07  absolut break condition
   DEPER  =   0.30     relativ break condition  

   TIME   =   0.05     timestep for ELM

  volume/ion in A,a.u.               =     145.45       981.58
  Fermi-wavevector in a.u.,A,eV,Ry     =   0.449864  0.850119  2.753510  0.202377
  Thomas-Fermi vector in A             =   1.430192
 
 Write flags
   LWAVE  =      T    write WAVECAR
   LCHARG =      T    write CHGCAR
   LVTOT  =      F    write LOCPOT, total local potential
   LVHAR  =      F    write LOCPOT, Hartree potential only
   LELF   =      F    write electronic localiz. function (ELF)
   LORBIT =      0    0 simple, 1 ext, 2 COOP (PROOUT)


 Dipole corrections
   LMONO  =      F    monopole corrections only (constant potential shift)
   LDIPOL =      F    correct potential (dipole corrections)
   IDIPOL =      0    1-x, 2-y, 3-z, 4-all directions 
   EPSILON=  1.0000000 bulk dielectric constant

 Core level calculations are selected ICORELEVEL =  2
  CLNT =           1       CLN =     1
  CLL  =           0       CLZ = 0.500
 Exchange correlation treatment:
   GGA     =    --    GGA type
   LEXCH   =     8    internal setting for exchange type
   VOSKOWN=      0    Vosko Wilk Nusair interpolation
   LHFCALC =     F    Hartree Fock is set to
   LHFONE  =     F    Hartree Fock one center treatment
   AEXX    =    0.0000 exact exchange contribution

 Linear response parameters
   LEPSILON=     F    determine dielectric tensor
   LRPA    =     F    only Hartree local field effects (RPA)
   LNABLA  =     F    use nabla operator in PAW spheres
   LVEL    =     F    velocity operator in full k-point grid
   LINTERFAST=   F  fast interpolation
   KINTER  =     0    interpolate to denser k-point grid
   CSHIFT  =0.1000    complex shift for real part using Kramers Kronig
   OMEGAMAX=  -1.0    maximum frequency
   DEG_THRESHOLD= 0.2000000E-02 threshold for treating states as degnerate
   RTIME   =    0.100 relaxation time in fs

 Orbital magnetization related:
   ORBITALMAG=     F  switch on orbital magnetization
   LCHIMAG   =     F  perturbation theory with respect to B field
   DQ        =  0.001000  dq finite difference perturbation B field



--------------------------------------------------------------------------------------------------------


 Static calculation
 charge density and potential will be updated during run
 spin polarized calculation
 Variant of blocked Davidson
 Davidson routine will perform the subspace rotation
 perform sub-space diagonalisation
    after iterative eigenvector-optimisation
 modified Broyden-mixing scheme, WC =      100.0
 initial mixing is a Kerker type mixing with AMIX =  0.4000 and BMIX =      2.0000
 Hartree-type preconditioning will be used
 using additional bands           45
 real space projection scheme for non local part
 use partial core corrections
 calculate Harris-corrections to forces 
   (improved forces if not selfconsistent)
 use gradient corrections 
 use of overlap-Matrix (Vanderbilt PP)
 Gauss-broadening in eV      SIGMA  =   0.01


--------------------------------------------------------------------------------------------------------


  energy-cutoff  :      700.00
  volume of cell :     8000.00
      direct lattice vectors                 reciprocal lattice vectors
    20.000000000  0.000000000  0.000000000     0.050000000  0.000000000  0.000000000
     0.000000000 20.000000000  0.000000000     0.000000000  0.050000000  0.000000000
     0.000000000  0.000000000 20.000000000     0.000000000  0.000000000  0.050000000

  length of vectors
    20.000000000 20.000000000 20.000000000     0.050000000  0.050000000  0.050000000


 
 k-points in units of 2pi/SCALE and weight: K-Points                                
   0.00000000  0.00000000  0.00000000       1.000
 
 k-points in reciprocal lattice and weights: K-Points                                
   0.00000000  0.00000000  0.00000000       1.000
 
 position of ions in fractional coordinates (direct lattice) 
   0.43785737  0.63472201  0.33675972
   0.43793752  0.56561110  0.32757008
   0.45581208  0.52423376  0.38051465
   0.47372925  0.61530131  0.44986522
   0.45595175  0.65963312  0.39935201
   0.29334713  0.47671938  0.56830116
   0.52307882  0.32955005  0.67474498
   0.49710163  0.37190466  0.62618823
   0.60227374  0.41933300  0.60593616
   0.63096398  0.37761922  0.65422416
   0.73964927  0.52855915  0.53463181
   0.70082162  0.56612858  0.49044049
   0.63257913  0.55363620  0.48652424
   0.63952130  0.46927713  0.56732841
   0.70843899  0.47974495  0.57314689
   0.59134754  0.33224398  0.68903016
   0.36211554  0.48866484  0.56417415
   0.40790931  0.62211625  0.69058213
   0.47619960  0.62606623  0.67660612
   0.50295190  0.58590820  0.62668073
   0.39825425  0.53800137  0.60426081
   0.36904589  0.57756069  0.65398228
   0.37289802  0.40579857  0.48223443
   0.30486503  0.39173492  0.48443166
   0.26422003  0.42785518  0.52821594
   0.48989745  0.29510618  0.70074864
   0.61334240  0.29968355  0.72673159
   0.68424189  0.38076917  0.66478776
   0.54225374  0.36233861  0.46129841
   0.31579090  0.57306911  0.66420366
   0.44416348  0.37118871  0.61364770
   0.42392665  0.66833230  0.29622671
   0.45642762  0.71313270  0.40950260
   0.48809132  0.63358802  0.49907234
   0.56912778  0.41808713  0.41480476
   0.73767440  0.44963919  0.60776512
   0.72277620  0.60481012  0.45904817
   0.45570253  0.47012894  0.37468790
   0.40614333  0.37888556  0.44852541
   0.28443799  0.35306162  0.45202062
   0.79326502  0.53703787  0.53892527
   0.55589708  0.58769132  0.61440612
   0.42412006  0.54328620  0.27986105
   0.50894741  0.65984570  0.70400156
   0.26265982  0.50568523  0.60265428
   0.21072272  0.41813760  0.53105039
   0.60090654  0.58197914  0.45254259
   0.38544357  0.65296704  0.72941133
   0.47424490  0.54794204  0.44140236
   0.40180479  0.45306079  0.52108436
   0.53520702  0.41608490  0.59173240
   0.46544808  0.54254992  0.59041194
   0.60138410  0.50650621  0.52397638
   0.53073984  0.40562607  0.44215451
   0.50088568  0.48087016  0.51934246
 
 position of ions in cartesian coordinates  (Angst):
   8.75714739 12.69444028  6.73519441
   8.75875044 11.31222209  6.55140167
   9.11624161 10.48467523  7.61029296
   9.47458509 12.30602619  8.99730442
   9.11903505 13.19266234  7.98704025
   5.86694270  9.53438759 11.36602327
  10.46157638  6.59100110 13.49489953
   9.94203263  7.43809325 12.52376455
  12.04547477  8.38665999 12.11872314
  12.61927957  7.55238445 13.08448329
  14.79298537 10.57118301 10.69263621
  14.01643234 11.32257164  9.80880974
  12.65158254 11.07272405  9.73048485
  12.79042597  9.38554253 11.34656829
  14.16877978  9.59489901 11.46293786
  11.82695089  6.64487969 13.78060313
   7.24231077  9.77329687 11.28348299
   8.15818611 12.44232505 13.81164268
   9.52399198 12.52132464 13.53212240
  10.05903801 11.71816400 12.53361469
   7.96508499 10.76002740 12.08521614
   7.38091777 11.55121387 13.07964553
   7.45796037  8.11597149  9.64468853
   6.09730063  7.83469839  9.68863321
   5.28440067  8.55710369 10.56431882
   9.79794892  5.90212351 14.01497288
  12.26684793  5.99367109 14.53463185
  13.68483783  7.61538334 13.29575520
  10.84507475  7.24677213  9.22596819
   6.31581791 11.46138226 13.28407311
   8.88326966  7.42377422 12.27295397
   8.47853309 13.36664601  5.92453423
   9.12855243 14.26265408  8.19005201
   9.76182647 12.67176037  9.98144677
  11.38255564  8.36174255  8.29609511
  14.75348806  8.99278384 12.15530242
  14.45552391 12.09620238  9.18096343
   9.11405064  9.40257887  7.49375804
   8.12286663  7.57771114  8.97050829
   5.68875982  7.06123239  9.04041232
  15.86530045 10.74075733 10.77850539
  11.11794158 11.75382641 12.28812234
   8.48240128 10.86572407  5.59722093
  10.17894811 13.19691406 14.08003122
   5.25319634 10.11370460 12.05308551
   4.21445446  8.36275200 10.62100772
  12.01813087 11.63958272  9.05085175
   7.70887141 13.05934086 14.58822659
   9.48489793 10.95884088  8.82804729
   8.03609572  9.06121573 10.42168714
  10.70414049  8.32169803 11.83464804
   9.30896151 10.85099836 11.80823871
  12.02768196 10.13012430 10.47952760
  10.61479684  8.11252146  8.84309019
  10.01771355  9.61740316 10.38684921
 


--------------------------------------------------------------------------------------------------------


 k-point  1 :   0.0000 0.0000 0.0000  plane waves:  336427

 maximum and minimum number of plane-waves per node :    336427   336427

 maximum number of plane-waves:    336427
 maximum index in each direction: 
   IXMAX=   43   IYMAX=   43   IZMAX=   43
   IXMIN=  -43   IYMIN=  -43   IZMIN=  -43

 NGX is ok and might be reduce to 174
 NGY is ok and might be reduce to 174
 NGZ is ok and might be reduce to 174

 serial   3D FFT for wavefunctions
 parallel 3D FFT for charge:
    minimum data exchange during FFTs selected (reduces bandwidth)


 total amount of memory used by VASP on root node   877132. kBytes
========================================================================

   base      :      30000. kBytes
   nonlr-proj:      19361. kBytes
   fftplans  :     269516. kBytes
   grid      :     534988. kBytes
   one-center:       1710. kBytes
   wavefun   :      21557. kBytes
 
     INWAV:  cpu time    0.00: real time    0.00
 Broyden mixing: mesh for mixing (old mesh)
   NGX = 87   NGY = 87   NGZ = 87
  (NGX  =360   NGY  =360   NGZ  =360)
  gives a total of 658503 points

 initial charge density was supplied:
 charge density of overlapping atoms calculated
 number of electron     168.5000000 magnetization       0.0000000
 keeping initial charge density in first step


--------------------------------------------------------------------------------------------------------


 Maximum index for non-local projection operator         8166
 Maximum index for augmentation-charges         3214 (set IRDMAX)


--------------------------------------------------------------------------------------------------------


 First call to EWALD:  gamma=   0.089
 Maximum number of real-space cells 3x 3x 3
 Maximum number of reciprocal cells 3x 3x 3

 FEWALD executed in parallel
    FEWALD:  cpu time    0.01: real time    0.01


----------------------------------------- Iteration    1(   1)  ---------------------------------------


    POTLOK:  cpu time    4.72: real time    4.75
    SETDIJ:  cpu time    2.87: real time    2.88
     EDDAV:  cpu time   14.83: real time   15.75
       DOS:  cpu time    0.01: real time    0.01
    --------------------------------------------
      LOOP:  cpu time   22.44: real time   23.40

 eigenvalue-minimisations  :   768
 total energy-change (2. order) : 0.9088145E+03  (-0.5881518E+04)
 number of electron     168.5000000 magnetization       0.0000000
 augmentation part      168.5000000 magnetization       0.0000000

 Free energy of the ion-electron system (eV)
  ---------------------------------------------------
  alpha Z        PSCENC =        12.91687988
  Ewald energy   TEWEN  =     23258.17366688
  -Hartree energ DENC   =    -28860.49420427
  -exchange      EXHF   =         0.00000000
  -V(xc)+E(xc)   XCENC  =       400.93140142
  PAW double counting   =      5890.45591622    -5710.10246236
  entropy T*S    EENTRO =        -0.00000695
  eigenvalues    EBANDS =     -1676.46664098
  atomic energy  EATOM  =      7593.39991119
  ---------------------------------------------------
  free energy    TOTEN  =       908.81446103 eV

  energy without entropy =      908.81446799  energy(sigma->0) =      908.81446451


--------------------------------------------------------------------------------------------------------




----------------------------------------- Iteration    1(   2)  ---------------------------------------


     EDDAV:  cpu time   19.19: real time   20.29
       DOS:  cpu time    0.01: real time    0.01
    --------------------------------------------
      LOOP:  cpu time   19.20: real time   20.30

 eigenvalue-minimisations  :  1024
 total energy-change (2. order) :-0.9777993E+03  (-0.9713817E+03)
 number of electron     168.5000000 magnetization       0.0000000
 augmentation part      168.5000000 magnetization       0.0000000

 Free energy of the ion-electron system (eV)
  ---------------------------------------------------
  alpha Z        PSCENC =        12.91687988
  Ewald energy   TEWEN  =     23258.17366688
  -Hartree energ DENC   =    -28860.49420427
  -exchange      EXHF   =         0.00000000
  -V(xc)+E(xc)   XCENC  =       400.93140142
  PAW double counting   =      5890.45591622    -5710.10246236
  entropy T*S    EENTRO =        -0.00000000
  eigenvalues    EBANDS =     -2654.26591940
  atomic energy  EATOM  =      7593.39991119
  ---------------------------------------------------
  free energy    TOTEN  =       -68.98481043 eV

  energy without entropy =      -68.98481043  energy(sigma->0) =      -68.98481043


--------------------------------------------------------------------------------------------------------




----------------------------------------- Iteration    1(   3)  ---------------------------------------


     EDDAV:  cpu time   14.97: real time   15.86
       DOS:  cpu time    0.01: real time    0.01
    --------------------------------------------
      LOOP:  cpu time   14.98: real time   15.87

 eigenvalue-minimisations  :   768
 total energy-change (2. order) :-0.3219432E+03  (-0.3215300E+03)
 number of electron     168.5000000 magnetization       0.0000000
 augmentation part      168.5000000 magnetization       0.0000000

 Free energy of the ion-electron system (eV)
  ---------------------------------------------------
  alpha Z        PSCENC =        12.91687988
  Ewald energy   TEWEN  =     23258.17366688
  -Hartree energ DENC   =    -28860.49420427
  -exchange      EXHF   =         0.00000000
  -V(xc)+E(xc)   XCENC  =       400.93140142
  PAW double counting   =      5890.45591622    -5710.10246236
  entropy T*S    EENTRO =        -0.00000000
  eigenvalues    EBANDS =     -2976.20916739
  atomic energy  EATOM  =      7593.39991119
  ---------------------------------------------------
  free energy    TOTEN  =      -390.92805842 eV

  energy without entropy =     -390.92805842  energy(sigma->0) =     -390.92805842


--------------------------------------------------------------------------------------------------------




----------------------------------------- Iteration    1(   4)  ---------------------------------------


     EDDAV:  cpu time   14.88: real time   15.79
       DOS:  cpu time    0.01: real time    0.01
    --------------------------------------------
      LOOP:  cpu time   14.89: real time   15.80

 eigenvalue-minimisations  :   768
 total energy-change (2. order) :-0.2176463E+02  (-0.2173627E+02)
 number of electron     168.5000000 magnetization       0.0000000
 augmentation part      168.5000000 magnetization       0.0000000

 Free energy of the ion-electron system (eV)
  ---------------------------------------------------
  alpha Z        PSCENC =        12.91687988
  Ewald energy   TEWEN  =     23258.17366688
  -Hartree energ DENC   =    -28860.49420427
  -exchange      EXHF   =         0.00000000
  -V(xc)+E(xc)   XCENC  =       400.93140142
  PAW double counting   =      5890.45591622    -5710.10246236
  entropy T*S    EENTRO =        -0.00000000
  eigenvalues    EBANDS =     -2997.97379977
  atomic energy  EATOM  =      7593.39991119
  ---------------------------------------------------
  free energy    TOTEN  =      -412.69269080 eV

  energy without entropy =     -412.69269080  energy(sigma->0) =     -412.69269080


--------------------------------------------------------------------------------------------------------




----------------------------------------- Iteration    1(   5)  ---------------------------------------


     EDDAV:  cpu time   14.95: real time   15.94
       DOS:  cpu time    0.01: real time    0.01
    CHARGE:  cpu time    5.09: real time    5.11
    MIXING:  cpu time    0.12: real time    0.13
    --------------------------------------------
      LOOP:  cpu time   20.18: real time   21.19

 eigenvalue-minimisations  :   768
 total energy-change (2. order) :-0.2270228E+00  (-0.2265451E+00)
 number of electron     166.0000000 magnetization      -0.0000000
 augmentation part        3.4742531 magnetization       0.0009090

 Broyden mixing:
  rms(total) = 0.57980E+01    rms(broyden)= 0.57973E+01
  rms(prec ) = 0.61982E+01
  weight for this iteration     100.00

 Free energy of the ion-electron system (eV)
  ---------------------------------------------------
  alpha Z        PSCENC =        12.91687988
  Ewald energy   TEWEN  =     23258.17366688
  -Hartree energ DENC   =    -28860.49420427
  -exchange      EXHF   =         0.00000000
  -V(xc)+E(xc)   XCENC  =       400.93140142
  PAW double counting   =      5890.45591622    -5710.10246236
  entropy T*S    EENTRO =        -0.00000000
  eigenvalues    EBANDS =     -2998.20082255
  atomic energy  EATOM  =      7593.39991119
  ---------------------------------------------------
  free energy    TOTEN  =      -412.91971357 eV

  energy without entropy =     -412.91971357  energy(sigma->0) =     -412.91971357


--------------------------------------------------------------------------------------------------------




----------------------------------------- Iteration    1(   6)  ---------------------------------------


    POTLOK:  cpu time    4.61: real time    4.63
    SETDIJ:  cpu time    2.82: real time    2.83
     EDDAV:  cpu time   12.97: real time   13.68
       DOS:  cpu time    0.08: real time    0.08
    CHARGE:  cpu time    5.12: real time    5.12
    MIXING:  cpu time    0.17: real time    0.17
    --------------------------------------------
      LOOP:  cpu time   25.77: real time   26.50

 eigenvalue-minimisations  :   640
 total energy-change (2. order) : 0.1834552E+02  (-0.4023590E+02)
 number of electron     166.0000000 magnetization      -0.0000000
 augmentation part        6.5685588 magnetization      -0.0000612

 Broyden mixing:
  rms(total) = 0.39673E+01    rms(broyden)= 0.39671E+01
  rms(prec ) = 0.41461E+01
  weight for this iteration     100.00

 eigenvalues of (default mixing * dielectric matrix)
  average eigenvalue GAMMA=   1.0018
  1.0018

 Free energy of the ion-electron system (eV)
  ---------------------------------------------------
  alpha Z        PSCENC =        12.91687988
  Ewald energy   TEWEN  =     23258.17366688
  -Hartree energ DENC   =    -28858.10114351
  -exchange      EXHF   =         0.00000000
  -V(xc)+E(xc)   XCENC  =       406.47000256
  PAW double counting   =     20916.94580493   -20749.98835836
  entropy T*S    EENTRO =        -0.00000000
  eigenvalues    EBANDS =     -2974.39095941
  atomic energy  EATOM  =      7593.39991119
  ---------------------------------------------------
  free energy    TOTEN  =      -394.57419583 eV

  energy without entropy =     -394.57419583  energy(sigma->0) =     -394.57419583


--------------------------------------------------------------------------------------------------------




----------------------------------------- Iteration    1(   7)  ---------------------------------------


    POTLOK:  cpu time    4.61: real time    4.62
    SETDIJ:  cpu time    2.81: real time    2.81
     EDDAV:  cpu time   12.93: real time   13.62
       DOS:  cpu time    0.08: real time    0.08
    CHARGE:  cpu time    5.35: real time    5.38
    MIXING:  cpu time    0.07: real time    0.08
    --------------------------------------------
      LOOP:  cpu time   25.84: real time   26.60

 eigenvalue-minimisations  :   640
 total energy-change (2. order) : 0.1121456E+02  (-0.2283594E+01)
 number of electron     166.0000000 magnetization       0.0000000
 augmentation part        5.6240198 magnetization       0.0000367

 Broyden mixing:
  rms(total) = 0.24191E+01    rms(broyden)= 0.24190E+01
  rms(prec ) = 0.24947E+01
  weight for this iteration     100.00

 eigenvalues of (default mixing * dielectric matrix)
  average eigenvalue GAMMA=   1.3842
  0.7488  2.0196

 Free energy of the ion-electron system (eV)
  ---------------------------------------------------
  alpha Z        PSCENC =        12.91687988
  Ewald energy   TEWEN  =     23258.17366688
  -Hartree energ DENC   =    -28987.47858886
  -exchange      EXHF   =         0.00000000
  -V(xc)+E(xc)   XCENC  =       411.66684596
  PAW double counting   =     35860.70551515   -35688.76707071
  entropy T*S    EENTRO =        -0.00000000
  eigenvalues    EBANDS =     -2843.97679054
  atomic energy  EATOM  =      7593.39991119
  ---------------------------------------------------
  free energy    TOTEN  =      -383.35963105 eV

  energy without entropy =     -383.35963105  energy(sigma->0) =     -383.35963105


--------------------------------------------------------------------------------------------------------




----------------------------------------- Iteration    1(   8)  ---------------------------------------


    POTLOK:  cpu time    4.60: real time    4.62
    SETDIJ:  cpu time    2.83: real time    2.83
     EDDAV:  cpu time   15.18: real time   16.40
       DOS:  cpu time    0.05: real time    0.05
    CHARGE:  cpu time    5.10: real time    5.10
    MIXING:  cpu time    0.11: real time    0.11
    --------------------------------------------
      LOOP:  cpu time   27.87: real time   29.12

 eigenvalue-minimisations  :   768
 total energy-change (2. order) : 0.4367248E+01  (-0.1818207E+01)
 number of electron     166.0000000 magnetization       0.0000000
 augmentation part        4.8728501 magnetization       0.0001045

 Broyden mixing:
  rms(total) = 0.10034E+01    rms(broyden)= 0.10033E+01
  rms(prec ) = 0.10820E+01
  weight for this iteration     100.00

 eigenvalues of (default mixing * dielectric matrix)
  average eigenvalue GAMMA=   1.4473
  2.6889  0.8266  0.8266

 Free energy of the ion-electron system (eV)
  ---------------------------------------------------
  alpha Z        PSCENC =        12.91687988
  Ewald energy   TEWEN  =     23258.17366688
  -Hartree energ DENC   =    -29142.90046967
  -exchange      EXHF   =         0.00000000
  -V(xc)+E(xc)   XCENC  =       419.38370914
  PAW double counting   =     67927.13169298   -67751.63895407
  entropy T*S    EENTRO =        -0.00000000
  eigenvalues    EBANDS =     -2695.45881988
  atomic energy  EATOM  =      7593.39991119
  ---------------------------------------------------
  free energy    TOTEN  =      -378.99238353 eV

  energy without entropy =     -378.99238353  energy(sigma->0) =     -378.99238353


--------------------------------------------------------------------------------------------------------




----------------------------------------- Iteration    1(   9)  ---------------------------------------


    POTLOK:  cpu time    4.61: real time    4.63
    SETDIJ:  cpu time    2.85: real time    2.85
     EDDAV:  cpu time   15.07: real time   16.32
       DOS:  cpu time    0.05: real time    0.05
    CHARGE:  cpu time    5.19: real time    5.21
    MIXING:  cpu time    0.08: real time    0.14
    --------------------------------------------
      LOOP:  cpu time   27.86: real time   29.21

 eigenvalue-minimisations  :   768
 total energy-change (2. order) : 0.1277472E+01  (-0.4457133E+00)
 number of electron     166.0000000 magnetization      -0.0000000
 augmentation part        5.2016329 magnetization      -0.0000252

 Broyden mixing:
  rms(total) = 0.36996E+00    rms(broyden)= 0.36993E+00
  rms(prec ) = 0.40901E+00
  weight for this iteration     100.00

 eigenvalues of (default mixing * dielectric matrix)
  average eigenvalue GAMMA=   1.3392
  2.4891  1.2623  0.8027  0.8027

 Free energy of the ion-electron system (eV)
  ---------------------------------------------------
  alpha Z        PSCENC =        12.91687988
  Ewald energy   TEWEN  =     23258.17366688
  -Hartree energ DENC   =    -29172.97430468
  -exchange      EXHF   =         0.00000000
  -V(xc)+E(xc)   XCENC  =       422.47950442
  PAW double counting   =     82873.90569353   -82700.09956649
  entropy T*S    EENTRO =        -0.00000000
  eigenvalues    EBANDS =     -2665.51669665
  atomic energy  EATOM  =      7593.39991119
  ---------------------------------------------------
  free energy    TOTEN  =      -377.71491191 eV

  energy without entropy =     -377.71491191  energy(sigma->0) =     -377.71491191


--------------------------------------------------------------------------------------------------------




----------------------------------------- Iteration    1(  10)  ---------------------------------------


    POTLOK:  cpu time    4.58: real time    4.68
    SETDIJ:  cpu time    2.80: real time    2.81
     EDDAV:  cpu time   15.19: real time   16.45
       DOS:  cpu time    0.05: real time    0.05
    CHARGE:  cpu time    5.29: real time    5.30
    MIXING:  cpu time    0.13: real time    0.13
    --------------------------------------------
      LOOP:  cpu time   28.04: real time   29.41

 eigenvalue-minimisations  :   768
 total energy-change (2. order) : 0.5119918E-01  (-0.6353126E-01)
 number of electron     166.0000000 magnetization      -0.0000000
 augmentation part        5.3402381 magnetization      -0.0000140

 Broyden mixing:
  rms(total) = 0.25788E+00    rms(broyden)= 0.25787E+00
  rms(prec ) = 0.30121E+00
  weight for this iteration     100.00

 eigenvalues of (default mixing * dielectric matrix)
  average eigenvalue GAMMA=   1.3788
  2.4160  1.8556  0.8460  0.8460  0.9304

 Free energy of the ion-electron system (eV)
  ---------------------------------------------------
  alpha Z        PSCENC =        12.91687988
  Ewald energy   TEWEN  =     23258.17366688
  -Hartree energ DENC   =    -29158.71677780
  -exchange      EXHF   =         0.00000000
  -V(xc)+E(xc)   XCENC  =       422.45463277
  PAW double counting   =     81279.38231685   -81106.32523171
  entropy T*S    EENTRO =        -0.00000000
  eigenvalues    EBANDS =     -2678.94911080
  atomic energy  EATOM  =      7593.39991119
  ---------------------------------------------------
  free energy    TOTEN  =      -377.66371273 eV

  energy without entropy =     -377.66371273  energy(sigma->0) =     -377.66371273


--------------------------------------------------------------------------------------------------------




----------------------------------------- Iteration    1(  11)  ---------------------------------------


    POTLOK:  cpu time    4.61: real time    4.63
    SETDIJ:  cpu time    2.81: real time    2.81
     EDDAV:  cpu time   15.08: real time   16.34
       DOS:  cpu time    0.05: real time    0.05
    CHARGE:  cpu time    5.27: real time    5.27
    MIXING:  cpu time    0.08: real time    0.08
    --------------------------------------------
      LOOP:  cpu time   27.90: real time   29.19

 eigenvalue-minimisations  :   768
 total energy-change (2. order) : 0.1359190E+00  (-0.1682672E-01)
 number of electron     166.0000000 magnetization      -0.0000000
 augmentation part        5.2879813 magnetization      -0.0000137

 Broyden mixing:
  rms(total) = 0.10576E+00    rms(broyden)= 0.10576E+00
  rms(prec ) = 0.14893E+00
  weight for this iteration     100.00

 eigenvalues of (default mixing * dielectric matrix)
  average eigenvalue GAMMA=   1.4790
  2.6296  2.6296  0.8644  0.8644  1.0301  0.8557

 Free energy of the ion-electron system (eV)
  ---------------------------------------------------
  alpha Z        PSCENC =        12.91687988
  Ewald energy   TEWEN  =     23258.17366688
  -Hartree energ DENC   =    -29158.99708211
  -exchange      EXHF   =         0.00000000
  -V(xc)+E(xc)   XCENC  =       423.18638185
  PAW double counting   =     81786.35781962   -81613.10330288
  entropy T*S    EENTRO =        -0.00000000
  eigenvalues    EBANDS =     -2679.46206816
  atomic energy  EATOM  =      7593.39991119
  ---------------------------------------------------
  free energy    TOTEN  =      -377.52779373 eV

  energy without entropy =     -377.52779373  energy(sigma->0) =     -377.52779373


--------------------------------------------------------------------------------------------------------




----------------------------------------- Iteration    1(  12)  ---------------------------------------


    POTLOK:  cpu time    4.74: real time    4.77
    SETDIJ:  cpu time    2.83: real time    2.83
     EDDAV:  cpu time   15.15: real time   16.46
       DOS:  cpu time    0.03: real time    0.03
    CHARGE:  cpu time    5.28: real time    5.27
    MIXING:  cpu time    0.12: real time    0.12
    --------------------------------------------
      LOOP:  cpu time   28.15: real time   29.49

 eigenvalue-minimisations  :   768
 total energy-change (2. order) : 0.7629553E-01  (-0.1019368E-01)
 number of electron     166.0000000 magnetization      -0.0000000
 augmentation part        5.2473948 magnetization       0.0000126

 Broyden mixing:
  rms(total) = 0.70688E-01    rms(broyden)= 0.70685E-01
  rms(prec ) = 0.99768E-01
  weight for this iteration     100.00

 eigenvalues of (default mixing * dielectric matrix)
  average eigenvalue GAMMA=   1.4385
  2.8058  2.8058  0.8611  0.8611  1.0832  0.9145  0.7381

 Free energy of the ion-electron system (eV)
  ---------------------------------------------------
  alpha Z        PSCENC =        12.91687988
  Ewald energy   TEWEN  =     23258.17366688
  -Hartree energ DENC   =    -29155.32914645
  -exchange      EXHF   =         0.00000000
  -V(xc)+E(xc)   XCENC  =       423.85066111
  PAW double counting   =     81694.02636991   -81520.68055514
  entropy T*S    EENTRO =        -0.00000000
  eigenvalues    EBANDS =     -2683.80928559
  atomic energy  EATOM  =      7593.39991119
  ---------------------------------------------------
  free energy    TOTEN  =      -377.45149820 eV

  energy without entropy =     -377.45149820  energy(sigma->0) =     -377.45149820


--------------------------------------------------------------------------------------------------------




----------------------------------------- Iteration    1(  13)  ---------------------------------------


    POTLOK:  cpu time    4.59: real time    4.63
    SETDIJ:  cpu time    2.79: real time    2.80
     EDDAV:  cpu time   15.06: real time   16.34
       DOS:  cpu time    0.06: real time    0.06
    CHARGE:  cpu time    5.05: real time    5.05
    MIXING:  cpu time    0.26: real time    0.26
    --------------------------------------------
      LOOP:  cpu time   27.81: real time   29.12

 eigenvalue-minimisations  :   768
 total energy-change (2. order) : 0.1500334E-01  (-0.1500812E-02)
 number of electron     166.0000000 magnetization      -0.0000000
 augmentation part        5.2539609 magnetization      -0.0000113

 Broyden mixing:
  rms(total) = 0.51678E-01    rms(broyden)= 0.51677E-01
  rms(prec ) = 0.74962E-01
  weight for this iteration     100.00

 eigenvalues of (default mixing * dielectric matrix)
  average eigenvalue GAMMA=   1.5450
  3.3778  2.8033  1.5863  1.1011  1.1011  0.8780  0.8780  0.6344

 Free energy of the ion-electron system (eV)
  ---------------------------------------------------
  alpha Z        PSCENC =        12.91687988
  Ewald energy   TEWEN  =     23258.17366688
  -Hartree energ DENC   =    -29149.42958592
  -exchange      EXHF   =         0.00000000
  -V(xc)+E(xc)   XCENC  =       424.06395992
  PAW double counting   =     81359.98408489   -81186.72019094
  entropy T*S    EENTRO =        -0.00000000
  eigenvalues    EBANDS =     -2689.82522077
  atomic energy  EATOM  =      7593.39991119
  ---------------------------------------------------
  free energy    TOTEN  =      -377.43649486 eV

  energy without entropy =     -377.43649486  energy(sigma->0) =     -377.43649486


--------------------------------------------------------------------------------------------------------




----------------------------------------- Iteration    1(  14)  ---------------------------------------


    POTLOK:  cpu time    4.73: real time    4.76
    SETDIJ:  cpu time    2.80: real time    2.80
     EDDAV:  cpu time   15.19: real time   16.48
       DOS:  cpu time    0.04: real time    0.04
    CHARGE:  cpu time    5.22: real time    5.22
    MIXING:  cpu time    0.17: real time    0.17
    --------------------------------------------
      LOOP:  cpu time   28.15: real time   29.48

 eigenvalue-minimisations  :   768
 total energy-change (2. order) : 0.8932152E-02  (-0.1502353E-02)
 number of electron     166.0000000 magnetization      -0.0000000
 augmentation part        5.2600350 magnetization      -0.0000014

 Broyden mixing:
  rms(total) = 0.30414E-01    rms(broyden)= 0.30412E-01
  rms(prec ) = 0.46169E-01
  weight for this iteration     100.00

 eigenvalues of (default mixing * dielectric matrix)
  average eigenvalue GAMMA=   1.6319
  4.4543  2.5777  1.9214  1.4464  0.8707  0.8707  0.9584  0.9584  0.6287

 Free energy of the ion-electron system (eV)
  ---------------------------------------------------
  alpha Z        PSCENC =        12.91687988
  Ewald energy   TEWEN  =     23258.17366688
  -Hartree energ DENC   =    -29140.03595347
  -exchange      EXHF   =         0.00000000
  -V(xc)+E(xc)   XCENC  =       424.30957511
  PAW double counting   =     81095.39494998   -80922.21139931
  entropy T*S    EENTRO =        -0.00000000
  eigenvalues    EBANDS =     -2699.37519298
  atomic energy  EATOM  =      7593.39991119
  ---------------------------------------------------
  free energy    TOTEN  =      -377.42756271 eV

  energy without entropy =     -377.42756271  energy(sigma->0) =     -377.42756271


--------------------------------------------------------------------------------------------------------




----------------------------------------- Iteration    1(  15)  ---------------------------------------


    POTLOK:  cpu time    4.62: real time    4.64
    SETDIJ:  cpu time    2.81: real time    2.81
     EDDAV:  cpu time   15.06: real time   16.36
       DOS:  cpu time    0.05: real time    0.05
    CHARGE:  cpu time    5.27: real time    5.28
    MIXING:  cpu time    0.13: real time    0.13
    --------------------------------------------
      LOOP:  cpu time   27.93: real time   29.27

 eigenvalue-minimisations  :   768
 total energy-change (2. order) :-0.2598681E-02  (-0.5595041E-03)
 number of electron     166.0000000 magnetization      -0.0000000
 augmentation part        5.2597990 magnetization       0.0000011

 Broyden mixing:
  rms(total) = 0.21693E-01    rms(broyden)= 0.21692E-01
  rms(prec ) = 0.30756E-01
  weight for this iteration     100.00

 eigenvalues of (default mixing * dielectric matrix)
  average eigenvalue GAMMA=   1.7333
  5.2179  2.5163  2.5163  1.4144  1.1988  1.1988  0.8754  0.8754  0.8919  0.6280

 Free energy of the ion-electron system (eV)
  ---------------------------------------------------
  alpha Z        PSCENC =        12.91687988
  Ewald energy   TEWEN  =     23258.17366688
  -Hartree energ DENC   =    -29131.06259998
  -exchange      EXHF   =         0.00000000
  -V(xc)+E(xc)   XCENC  =       424.42834243
  PAW double counting   =     81056.74378718   -80883.56623692
  entropy T*S    EENTRO =        -0.00000000
  eigenvalues    EBANDS =     -2708.46391206
  atomic energy  EATOM  =      7593.39991119
  ---------------------------------------------------
  free energy    TOTEN  =      -377.43016139 eV

  energy without entropy =     -377.43016139  energy(sigma->0) =     -377.43016139


--------------------------------------------------------------------------------------------------------




----------------------------------------- Iteration    1(  16)  ---------------------------------------


    POTLOK:  cpu time    4.64: real time    4.91
    SETDIJ:  cpu time    2.83: real time    2.83
     EDDAV:  cpu time   15.03: real time   16.35
       DOS:  cpu time    0.05: real time    0.05
    CHARGE:  cpu time    5.21: real time    5.21
    MIXING:  cpu time    0.22: real time    0.22
    --------------------------------------------
      LOOP:  cpu time   27.98: real time   29.58

 eigenvalue-minimisations  :   768
 total energy-change (2. order) :-0.1068643E-01  (-0.2684809E-03)
 number of electron     166.0000000 magnetization      -0.0000000
 augmentation part        5.2611472 magnetization      -0.0000046

 Broyden mixing:
  rms(total) = 0.10761E-01    rms(broyden)= 0.10761E-01
  rms(prec ) = 0.15942E-01
  weight for this iteration     100.00

 eigenvalues of (default mixing * dielectric matrix)
  average eigenvalue GAMMA=   1.7909
  6.0629  2.7437  2.7437  1.5374  1.5374  0.8754  0.8754  0.9667  0.9667  0.7634
  0.6273

 Free energy of the ion-electron system (eV)
  ---------------------------------------------------
  alpha Z        PSCENC =        12.91687988
  Ewald energy   TEWEN  =     23258.17366688
  -Hartree energ DENC   =    -29120.79386658
  -exchange      EXHF   =         0.00000000
  -V(xc)+E(xc)   XCENC  =       424.39784264
  PAW double counting   =     81121.98265713   -80948.78418370
  entropy T*S    EENTRO =        -0.00000000
  eigenvalues    EBANDS =     -2718.73375527
  atomic energy  EATOM  =      7593.39991119
  ---------------------------------------------------
  free energy    TOTEN  =      -377.44084782 eV

  energy without entropy =     -377.44084782  energy(sigma->0) =     -377.44084782


--------------------------------------------------------------------------------------------------------




----------------------------------------- Iteration    1(  17)  ---------------------------------------


    POTLOK:  cpu time    4.63: real time    4.66
    SETDIJ:  cpu time    2.82: real time    2.82
     EDDAV:  cpu time   15.16: real time   16.44
       DOS:  cpu time    0.05: real time    0.05
    CHARGE:  cpu time    5.20: real time    5.22
    MIXING:  cpu time    0.20: real time    0.20
    --------------------------------------------
      LOOP:  cpu time   28.07: real time   29.40

 eigenvalue-minimisations  :   768
 total energy-change (2. order) :-0.5861295E-02  (-0.7842458E-04)
 number of electron     166.0000000 magnetization       0.0000000
 augmentation part        5.2609718 magnetization       0.0000023

 Broyden mixing:
  rms(total) = 0.80323E-02    rms(broyden)= 0.80322E-02
  rms(prec ) = 0.10974E-01
  weight for this iteration     100.00

 eigenvalues of (default mixing * dielectric matrix)
  average eigenvalue GAMMA=   1.8032
  6.5634  2.8425  2.8425  1.6329  1.6329  0.8751  0.8751  1.0090  1.0090  1.0019
  0.6257  0.7289

 Free energy of the ion-electron system (eV)
  ---------------------------------------------------
  alpha Z        PSCENC =        12.91687988
  Ewald energy   TEWEN  =     23258.17366688
  -Hartree energ DENC   =    -29115.63277312
  -exchange      EXHF   =         0.00000000
  -V(xc)+E(xc)   XCENC  =       424.36651283
  PAW double counting   =     81190.97633512   -81017.76294988
  entropy T*S    EENTRO =        -0.00000000
  eigenvalues    EBANDS =     -2723.88429202
  atomic energy  EATOM  =      7593.39991119
  ---------------------------------------------------
  free energy    TOTEN  =      -377.44670912 eV

  energy without entropy =     -377.44670912  energy(sigma->0) =     -377.44670912


--------------------------------------------------------------------------------------------------------




----------------------------------------- Iteration    1(  18)  ---------------------------------------


    POTLOK:  cpu time    4.64: real time    4.65
    SETDIJ:  cpu time    2.67: real time    2.88
     EDDAV:  cpu time   15.07: real time   16.36
       DOS:  cpu time    0.05: real time    0.05
    CHARGE:  cpu time    5.09: real time    5.12
    MIXING:  cpu time    0.28: real time    0.28
    --------------------------------------------
      LOOP:  cpu time   27.81: real time   29.35

 eigenvalue-minimisations  :   768
 total energy-change (2. order) :-0.4911768E-02  (-0.3698137E-04)
 number of electron     166.0000000 magnetization       0.0000000
 augmentation part        5.2612287 magnetization      -0.0000011

 Broyden mixing:
  rms(total) = 0.57500E-02    rms(broyden)= 0.57499E-02
  rms(prec ) = 0.74891E-02
  weight for this iteration     100.00

 eigenvalues of (default mixing * dielectric matrix)
[...]
 12.558   0.000  21.151   0.000  -0.003   0.000   0.004   0.000   0.001   0.000  -0.005   0.000   0.006   0.000   0.002   0.000
 21.151   0.000  35.624   0.000  -0.005   0.000   0.006   0.000   0.002   0.000  -0.009   0.000   0.011   0.000   0.004   0.000
 -0.003   0.000  -0.005   0.000  -3.540   0.000  -0.000   0.000   0.000   0.000  -6.361   0.000  -0.000   0.000   0.000   0.000
  0.004   0.000   0.006   0.000  -0.000   0.000  -3.539   0.000  -0.000   0.000  -0.000   0.000  -6.361   0.000  -0.001   0.000
  0.001   0.000   0.002   0.000   0.000   0.000  -0.000   0.000  -3.539   0.000   0.000   0.000  -0.001   0.000  -6.360   0.000
 -0.005   0.000  -0.009   0.000  -6.361   0.000  -0.000   0.000   0.000   0.000 -11.411   0.000  -0.000   0.000   0.000   0.000
  0.006   0.000   0.011   0.000  -0.000   0.000  -6.361   0.000  -0.001   0.000  -0.000   0.000 -11.410   0.000  -0.001   0.000
  0.002   0.000   0.004   0.000   0.000   0.000  -0.001   0.000  -6.360   0.000   0.000   0.000  -0.001   0.000 -11.407   0.000
 pseudopotential strength for first ion, spin component:           2
 12.558   0.000  21.151   0.000  -0.003   0.000   0.004   0.000   0.001   0.000  -0.005   0.000   0.006   0.000   0.002   0.000
 21.151   0.000  35.624   0.000  -0.005   0.000   0.006   0.000   0.002   0.000  -0.009   0.000   0.011   0.000   0.004   0.000
 -0.003   0.000  -0.005   0.000  -3.540   0.000  -0.000   0.000   0.000   0.000  -6.361   0.000  -0.000   0.000   0.000   0.000
  0.004   0.000   0.006   0.000  -0.000   0.000  -3.539   0.000  -0.000   0.000  -0.000   0.000  -6.361   0.000  -0.001   0.000
  0.001   0.000   0.002   0.000   0.000   0.000  -0.000   0.000  -3.539   0.000   0.000   0.000  -0.001   0.000  -6.360   0.000
 -0.005   0.000  -0.009   0.000  -6.361   0.000  -0.000   0.000   0.000   0.000 -11.411   0.000  -0.000   0.000   0.000   0.000
  0.006   0.000   0.011   0.000  -0.000   0.000  -6.361   0.000  -0.001   0.000  -0.000   0.000 -11.410   0.000  -0.001   0.000
  0.002   0.000   0.004   0.000   0.000   0.000  -0.001   0.000  -6.360   0.000   0.000   0.000  -0.001   0.000 -11.407   0.000
 total augmentation occupancy for first ion, spin component:           1
  1.013  -0.080  -0.350   0.419   0.143   0.128  -0.154  -0.051
 -0.080   0.376   0.156  -0.187  -0.064  -0.044   0.053   0.017
 -0.350   0.156   2.958   0.235  -0.024  -0.510  -0.096  -0.002
  0.419  -0.187   0.235   2.675   0.592  -0.095  -0.416  -0.165
  0.143  -0.064  -0.024   0.592   0.897  -0.002  -0.165   0.083
  0.128  -0.044  -0.510  -0.095  -0.002   0.139   0.031   0.007
 -0.154   0.053  -0.096  -0.416  -0.165   0.031   0.120   0.014
 -0.051   0.017  -0.002  -0.165   0.083   0.007   0.014   0.072
 total augmentation occupancy for first ion, spin component:           2
  0.000  -0.000  -0.000   0.000  -0.000   0.000  -0.000  -0.000
 -0.000  -0.000   0.000  -0.000   0.000  -0.000   0.000   0.000
 -0.000   0.000   0.000   0.000   0.000  -0.000  -0.000  -0.000
  0.000  -0.000   0.000   0.000  -0.000  -0.000  -0.000  -0.000
 -0.000   0.000   0.000  -0.000   0.000  -0.000  -0.000  -0.000
  0.000  -0.000  -0.000  -0.000  -0.000   0.000   0.000   0.000
 -0.000   0.000  -0.000  -0.000  -0.000   0.000   0.000   0.000
 -0.000   0.000  -0.000  -0.000  -0.000   0.000   0.000  -0.000


------------------------ aborting loop because EDIFF is reached ----------------------------------------


    CHARGE:  cpu time    5.08: real time    5.08
    FORLOC:  cpu time    0.76: real time    0.76
    FORNL :  cpu time   19.63: real time   19.65
    STRESS:  cpu time   61.50: real time   61.59
    FORCOR:  cpu time    4.23: real time    4.24
    FORHAR:  cpu time    1.00: real time    1.00
    MIXING:  cpu time    0.21: real time    0.21
    OFIELD:  cpu time    0.00: real time    0.00

  FORCE on cell =-STRESS in cart. coord.  units (eV):
  Direction    XX          YY          ZZ          XY          YZ          ZX
  --------------------------------------------------------------------------------------
  Alpha Z    12.91688    12.91688    12.91688
  Ewald   11082.80862  5607.96100  6567.38959   366.75390 -1602.25223   929.82817
  Hartree 12487.80158  7811.50673  8807.52508    89.85584 -1456.76863   736.02419
  E(xc)    -689.07875  -691.39395  -692.06161     1.40175    -0.11472     0.70871
  Local  -25945.39354-15822.21317-17797.92417  -435.29967  3054.88128 -1664.75435
  n-local   -28.67197   -28.34738   -31.89797     3.53400    -0.93517    -0.99057
  augment    82.67506    84.31976    83.22390     1.45779     0.76466     0.54356
  Kinetic  2984.17658  3009.68613  3035.16801   -27.23677     4.83053    -2.28882
  Fock        0.00000     0.00000     0.00000     0.00000     0.00000     0.00000
  -------------------------------------------------------------------------------------
  Total     -12.76554   -15.56400   -15.66029     0.46684     0.40573    -0.92911
  in kB      -2.55658    -3.11704    -3.13632     0.09350     0.08126    -0.18607
  external pressure =       -2.94 kB  Pullay stress =        0.00 kB


 VOLUME and BASIS-vectors are now :
 -----------------------------------------------------------------------------
  energy-cutoff  :      700.00
  volume of cell :     8000.00
      direct lattice vectors                 reciprocal lattice vectors
    20.000000000  0.000000000  0.000000000     0.050000000  0.000000000  0.000000000
     0.000000000 20.000000000  0.000000000     0.000000000  0.050000000  0.000000000
     0.000000000  0.000000000 20.000000000     0.000000000  0.000000000  0.050000000

  length of vectors
    20.000000000 20.000000000 20.000000000     0.050000000  0.050000000  0.050000000


 FORCES acting on ions
    electron-ion (+dipol)            ewald-force                    non-local-force                 convergence-correction
 -----------------------------------------------------------------------------------------------
   0.901E+02 -.233E+03 0.295E+03   -.909E+02 0.235E+03 -.298E+03   0.883E+00 -.191E+01 0.230E+01   -.270E-05 0.262E-04 -.361E-04
   0.879E+02 0.125E+01 0.334E+03   -.884E+02 -.537E+01 -.337E+03   0.561E+00 0.507E+01 0.232E+01   -.472E-05 0.218E-04 -.170E-04
   0.675E+02 0.835E+02 0.317E+03   -.692E+02 -.871E+02 -.322E+03   0.173E+01 0.362E+01 0.530E+01   -.115E-04 -.312E-05 -.847E-06
   0.282E+01 -.317E+03 0.265E+02   -.251E+01 0.323E+03 -.244E+02   -.356E+00 -.624E+01 -.214E+01   -.194E-04 -.534E-05 -.800E-05
   0.335E+02 -.329E+03 0.955E+02   -.327E+02 0.332E+03 -.921E+02   -.107E+01 -.350E+01 -.424E+01   -.734E-05 0.288E-05 -.360E-04
   0.323E+03 -.345E+02 -.117E+03   -.325E+03 0.343E+02 0.117E+03   0.235E+01 0.243E+00 -.341E+00   0.684E-05 -.615E-05 0.216E-04
   0.747E+02 0.267E+03 -.218E+03   -.752E+02 -.269E+03 0.220E+03   0.450E+00 0.150E+01 -.144E+01   0.869E-05 -.246E-04 0.179E-04
   0.151E+03 0.255E+03 -.164E+03   -.155E+03 -.260E+03 0.168E+03   0.405E+01 0.483E+01 -.389E+01   0.341E-05 0.150E-04 -.251E-05
   -.226E+03 0.123E+03 -.137E+03   0.231E+03 -.124E+03 0.140E+03   -.532E+01 0.119E+01 -.287E+01   0.532E-05 0.105E-05 -.505E-05
   -.257E+03 0.143E+03 -.181E+03   0.259E+03 -.145E+03 0.183E+03   -.123E+01 0.131E+01 -.172E+01   0.153E-04 -.602E-05 -.961E-05
   -.338E+03 -.696E+02 -.104E+01   0.340E+03 0.701E+02 0.104E+01   -.197E+01 -.467E+00 -.819E-02   0.264E-04 0.518E-05 0.258E-05
   -.258E+03 -.192E+03 0.137E+03   0.260E+03 0.193E+03 -.137E+03   -.161E+01 -.111E+01 0.621E+00   0.307E-04 0.798E-05 -.370E-05
   -.181E+03 -.214E+03 0.186E+03   0.185E+03 0.218E+03 -.190E+03   -.373E+01 -.480E+01 0.369E+01   0.129E-04 -.124E-04 0.281E-05
   -.265E+03 0.638E+02 -.924E+02   0.270E+03 -.658E+02 0.954E+02   -.488E+01 0.198E+01 -.299E+01   -.428E-05 -.240E-04 0.119E-04
   -.315E+03 0.613E+02 -.112E+03   0.317E+03 -.612E+02 0.113E+03   -.232E+01 -.123E+00 -.437E+00   -.657E-05 -.160E-04 0.614E-05
   -.122E+03 0.232E+03 -.238E+03   0.123E+03 -.233E+03 0.240E+03   -.578E+00 0.135E+01 -.153E+01   0.234E-04 -.324E-04 0.196E-04
   0.271E+03 -.289E+02 -.104E+03   -.276E+03 0.306E+02 0.107E+03   0.503E+01 -.179E+01 -.278E+01   0.919E-05 0.941E-05 0.119E-04
   0.127E+03 -.218E+03 -.261E+03   -.128E+03 0.219E+03 0.263E+03   0.665E+00 -.127E+01 -.159E+01   -.259E-04 0.276E-04 0.399E-04
   -.744E+02 -.255E+03 -.246E+03   0.747E+02 0.257E+03 0.248E+03   -.340E+00 -.140E+01 -.153E+01   -.200E-04 0.185E-04 0.327E-04
   -.158E+03 -.236E+03 -.197E+03   0.162E+03 0.241E+03 0.201E+03   -.406E+01 -.469E+01 -.421E+01   -.146E-04 -.197E-04 0.722E-05
   0.232E+03 -.955E+02 -.158E+03   -.238E+03 0.965E+02 0.161E+03   0.563E+01 -.932E+00 -.274E+01   -.503E-05 -.801E-05 0.735E-06
   0.265E+03 -.124E+03 -.201E+03   -.266E+03 0.125E+03 0.202E+03   0.123E+01 -.122E+01 -.183E+01   -.976E-05 0.260E-05 0.830E-05
   0.147E+03 0.265E+03 0.192E+03   -.151E+03 -.270E+03 -.196E+03   0.337E+01 0.492E+01 0.392E+01   -.806E-05 0.183E-05 0.341E-06
   0.241E+03 0.224E+03 0.143E+03   -.243E+03 -.225E+03 -.144E+03   0.156E+01 0.119E+01 0.754E+00   -.249E-04 -.298E-04 -.120E-04
   0.337E+03 0.959E+02 0.283E+01   -.339E+03 -.964E+02 -.295E+01   0.195E+01 0.543E+00 0.100E+00   -.250E-04 -.306E-04 0.153E-04
   0.452E+02 0.805E+02 -.636E+02   -.488E+02 -.843E+02 0.664E+02   0.363E+01 0.381E+01 -.289E+01   -.502E-06 -.136E-04 0.971E-05
   -.418E+02 0.694E+02 -.756E+02   0.442E+02 -.731E+02 0.798E+02   -.243E+01 0.361E+01 -.418E+01   0.603E-05 -.151E-04 0.109E-04
   -.992E+02 0.278E+02 -.485E+02   0.105E+03 -.276E+02 0.498E+02   -.582E+01 -.256E+00 -.125E+01   0.259E-05 -.679E-05 0.109E-05
   -.407E+02 0.149E+03 0.158E+02   0.425E+02 -.157E+03 -.125E+02   -.179E+01 0.756E+01 -.336E+01   -.268E-05 0.969E-05 0.396E-05
   0.101E+03 -.224E+02 -.518E+02   -.107E+03 0.220E+02 0.530E+02   0.582E+01 0.413E+00 -.121E+01   -.336E-05 0.487E-05 0.750E-05
   0.800E+02 0.678E+02 -.317E+02   -.858E+02 -.680E+02 0.304E+02   0.587E+01 0.139E+00 0.133E+01   0.642E-06 0.270E-05 0.286E-06
   0.284E+02 -.706E+02 0.865E+02   -.297E+02 0.738E+02 -.903E+02   0.161E+01 -.389E+01 0.469E+01   0.258E-05 0.104E-05 -.322E-05
   0.562E+01 -.111E+03 0.774E+01   -.561E+01 0.117E+03 -.674E+01   -.633E-01 -.598E+01 -.118E+01   -.387E-06 0.716E-05 -.735E-05
   -.143E+02 -.101E+03 -.349E+02   0.159E+02 0.103E+03 0.404E+02   -.158E+01 -.206E+01 -.549E+01   -.703E-05 -.477E-05 -.705E-05
   -.101E+03 0.260E+02 0.116E+03   0.108E+03 -.237E+02 -.121E+03   -.652E+01 -.228E+01 0.483E+01   -.569E-05 0.334E-05 0.715E-05
   -.915E+02 0.385E+02 -.536E+02   0.948E+02 -.418E+02 0.573E+02   -.330E+01 0.324E+01 -.376E+01   0.304E-05 -.354E-05 0.763E-06
   -.661E+02 -.713E+02 0.546E+02   0.686E+02 0.756E+02 -.580E+02   -.246E+01 -.425E+01 0.344E+01   0.123E-04 0.585E-05 -.409E-05
   0.174E+02 0.716E+02 0.882E+02   -.174E+02 -.776E+02 -.890E+02   0.317E-01 0.605E+01 0.672E+00   -.143E-05 0.552E-05 0.281E-06
   0.416E+01 0.905E+02 0.772E+02   -.570E+00 -.936E+02 -.810E+02   -.359E+01 0.301E+01 0.374E+01   -.336E-05 0.233E-06 -.103E-05
   0.603E+02 0.771E+02 0.570E+02   -.626E+02 -.814E+02 -.606E+02   0.229E+01 0.426E+01 0.356E+01   -.108E-04 -.998E-05 -.480E-05
   -.105E+03 -.196E+02 -.455E+01   0.111E+03 0.206E+02 0.502E+01   -.593E+01 -.946E+00 -.469E+00   0.161E-04 0.507E-05 -.105E-05
   -.837E+02 -.639E+02 -.383E+02   0.896E+02 0.642E+02 0.370E+02   -.589E+01 -.241E+00 0.129E+01   -.365E-05 -.561E-05 0.232E-05
   0.287E+02 0.225E+02 0.105E+03   -.303E+02 -.249E+02 -.110E+03   0.154E+01 0.254E+01 0.532E+01   -.120E-05 0.208E-05 -.996E-05
   -.453E+02 -.783E+02 -.699E+02   0.489E+02 0.821E+02 0.730E+02   -.358E+01 -.373E+01 -.305E+01   -.368E-05 0.106E-04 0.131E-04
   0.946E+02 -.331E+02 -.544E+02   -.981E+02 0.362E+02 0.581E+02   0.345E+01 -.311E+01 -.372E+01   -.445E-05 -.216E-05 0.601E-05
   0.105E+03 0.253E+02 -.244E+01   -.111E+03 -.264E+02 0.275E+01   0.591E+01 0.109E+01 -.307E+00   -.151E-04 -.111E-04 0.314E-05
   -.231E+02 -.757E+02 0.736E+02   0.197E+02 0.789E+02 -.774E+02   0.339E+01 -.316E+01 0.376E+01   0.240E-05 -.131E-05 -.194E-05
   0.432E+02 -.658E+02 -.805E+02   -.457E+02 0.692E+02 0.848E+02   0.248E+01 -.342E+01 -.430E+01   -.686E-05 0.121E-04 0.149E-04
   0.303E+02 -.138E+03 0.221E+03   -.247E+02 0.124E+03 -.204E+03   -.552E+01 0.140E+02 -.171E+02   -.258E-04 -.731E-05 0.170E-05
   0.232E+03 0.164E+03 0.612E+02   -.212E+03 -.161E+03 -.625E+02   -.197E+02 -.310E+01 0.130E+01   0.201E-04 0.233E-04 0.198E-04
   -.408E+02 0.233E+03 -.159E+03   0.325E+02 -.222E+03 0.146E+03   0.834E+01 -.113E+02 0.129E+02   0.155E-04 0.259E-04 -.102E-04
   0.386E+02 -.196E+03 -.198E+03   -.309E+02 0.186E+03 0.186E+03   -.765E+01 0.952E+01 0.122E+02   -.196E-04 -.335E-04 -.198E-05
   -.253E+03 -.949E+02 0.671E+02   0.232E+03 0.924E+02 -.687E+02   0.202E+02 0.250E+01 0.160E+01   -.144E-04 -.445E-04 0.250E-04
   -.123E+03 0.405E+03 0.422E+03   0.837E+02 -.388E+03 -.423E+03   0.393E+02 -.171E+02 0.192E+01   -.283E-05 0.393E-04 0.418E-04
   -.749E+02 0.133E+03 0.226E+03   0.738E+02 -.130E+03 -.222E+03   0.113E+01 -.254E+01 -.461E+01   -.110E-04 -.394E-04 0.367E-04
 -----------------------------------------------------------------------------------------------
   -.313E+02 0.725E+01 0.116E+02   0.156E-12 -.256E-12 -.853E-13   0.313E+02 -.725E+01 -.116E+02   -.110E-03 -.118E-03 0.221E-03
 
 
 POSITION                                       TOTAL-FORCE (eV/Angst)
 -----------------------------------------------------------------------------------
      8.75715     12.69444      6.73519         0.055385     -0.133059      0.152921
      8.75875     11.31222      6.55140         0.005760      0.943766      0.173112
      9.11624     10.48468      7.61029        -0.030778      0.068578     -0.045526
      9.47459     12.30603      8.99730        -0.038115      0.029637     -0.077985
      9.11904     13.19266      7.98704        -0.247081     -0.381148     -0.833415
      5.86694      9.53439     11.36602         0.016820      0.026973      0.013153
     10.46158      6.59100     13.49490         0.018940     -0.004416      0.010760
      9.94203      7.43809     12.52376        -0.037030      0.027622     -0.046432
     12.04547      8.38666     12.11872        -0.006954      0.020108     -0.011903
     12.61928      7.55238     13.08448        -0.002332      0.016913     -0.017130
     14.79299     10.57118     10.69264        -0.013449      0.001208     -0.005304
     14.01643     11.32257      9.80881        -0.003347      0.017166     -0.015338
     12.65158     11.07272      9.73048        -0.009152     -0.042575      0.041298
     12.79043      9.38554     11.34657        -0.017990      0.010927     -0.007815
     14.16878      9.59490     11.46294        -0.001161      0.003644     -0.001003
     11.82695      6.64488     13.78060        -0.029266     -0.001827     -0.005107
      7.24231      9.77330     11.28348        -0.002836     -0.044127     -0.016519
      8.15819     12.44233     13.81164         0.030052      0.003047     -0.004252
      9.52399     12.52132     13.53212        -0.015660      0.023323      0.021789
     10.05904     11.71816     12.53361         0.007744     -0.020876     -0.029311
      7.96508     10.76003     12.08522         0.036885      0.017220      0.025658
      7.38092     11.55121     13.07965        -0.018137     -0.016173     -0.016777
      7.45796      8.11597      9.64469         0.043412      0.024024      0.002208
      6.09730      7.83470      9.68863        -0.042629     -0.002976     -0.005110
      5.28440      8.55710     10.56432         0.021180     -0.024326     -0.024197
      9.79795      5.90212     14.01497        -0.003657     -0.001446     -0.000533
     12.26685      5.99367     14.53463         0.001692     -0.003716      0.003984
     13.68484      7.61538     13.29576        -0.002322      0.000885     -0.000135
     10.84507      7.24677      9.22597         0.004684     -0.035447     -0.008652
      6.31582     11.46138     13.28407        -0.001686      0.004322      0.003872
      8.88327      7.42377     12.27295        -0.002299     -0.013687      0.008522
      8.47853     13.36665      5.92453         0.297087     -0.717272      0.869585
      9.12855     14.26265      8.19005        -0.053651      0.006987     -0.179722
      9.76183     12.67176      9.98145        -0.020304      0.059515     -0.051520
     11.38256      8.36174      8.29610         0.039591     -0.042437      0.013401
     14.75349      8.99278     12.15530         0.005172      0.001945     -0.000388
     14.45552     12.09620      9.18096         0.008826      0.001374     -0.002425
      9.11405      9.40258      7.49376        -0.023143      0.033780     -0.064441
      8.12287      7.57771      8.97051         0.004501     -0.026407      0.005833
      5.68876      7.06123      9.04041        -0.002535     -0.010383      0.002349
     15.86530     10.74076     10.77851         0.000134      0.003970     -0.000161
     11.11794     11.75383     12.28812         0.014015     -0.003227      0.010990
      8.48240     10.86572      5.59722        -0.028477      0.181965     -0.044560
     10.17895     13.19691     14.08003         0.003085      0.001657      0.002108
      5.25320     10.11370     12.05309        -0.004205     -0.004608      0.000883
      4.21445      8.36275     10.62101        -0.006437     -0.005412      0.001509
     12.01813     11.63958      9.05085         0.035484      0.007700     -0.005115
      7.70887     13.05934     14.58823        -0.002914      0.004798      0.007509
      9.48490     10.95884      8.82805         0.080612     -0.256905      0.307397
      8.03610      9.06122     10.42169        -0.196679     -0.081154      0.023171
     10.70414      8.32170     11.83465         0.004818     -0.041795      0.056884
      9.30896     10.85100     11.80824        -0.023707      0.116385      0.097521
     12.02768     10.13012     10.47953         0.121331     -0.012430      0.042837
     10.61480      8.11252      8.84309        -0.016426      0.070708     -0.003448
     10.01771      9.61740     10.38685         0.047152      0.197681     -0.375031
 -----------------------------------------------------------------------------------
    total drift:                                0.006659     -0.003569      0.003455


--------------------------------------------------------------------------------------------------------



  FREE ENERGIE OF THE ION-ELECTRON SYSTEM (eV)
  ---------------------------------------------------
  free  energy   TOTEN  =      -377.46147841 eV

  energy  without entropy=     -377.46147841  energy(sigma->0) =     -377.46147841
 


--------------------------------------------------------------------------------------------------------


    POTLOK:  cpu time    7.53: real time    7.56


--------------------------------------------------------------------------------------------------------


 writing wavefunctions
     LOOP+:  cpu time 1022.24: real time 1060.39
    4ORBIT:  cpu time    0.00: real time    0.00

 total amount of memory used by VASP on root node   877132. kBytes
========================================================================

   base      :      30000. kBytes
   nonlr-proj:      19361. kBytes
   fftplans  :     269516. kBytes
   grid      :     534988. kBytes
   one-center:       1710. kBytes
   wavefun   :      21557. kBytes
 
  
  
 General timing and accounting informations for this job:
 ========================================================
  
                  Total CPU time used (sec):     1275.550
                            User time (sec):     1129.578
                          System time (sec):      145.972
                         Elapsed time (sec):     1317.822
  
                   Maximum memory used (kb):     1490444.
                   Average memory used (kb):           0.
  
                          Minor page faults:      7029171
                          Major page faults:            3
                 Voluntary context switches:       272847
