  55  55   0   0
  0.1454545E+03  0.2000000E-08  0.2000000E-08  0.2000000E-08  0.5000000E-15
  1.000000000000000E-004
  CAR 
 c2_oh2_ruthenium_mol                    
      3.19618403    -51.67023369  301     -6.99982526      1.00000000
    -51.670  0.0000E+00  0.0000E+00  0.0000E+00  0.0000E+00
    -51.487  0.0000E+00  0.0000E+00  0.0000E+00  0.0000E+00
    -51.304  0.0000E+00  0.0000E+00  0.0000E+00  0.0000E+00
    -51.122  0.0000E+00  0.0000E+00  0.0000E+00  0.0000E+00
    -50.939  0.0000E+00  0.0000E+00  0.0000E+00  0.0000E+00
    -50.756  0.0000E+00  0.0000E+00  0.0000E+00  0.0000E+00
    -50.573  0.0000E+00  0.0000E+00  0.0000E+00  0.0000E+00
    -50.390  0.0000E+00  0.0000E+00  0.0000E+00  0.0000E+00
    -50.207  0.0000E+00  0.0000E+00  0.0000E+00  0.0000E+00
    -50.024  0.0000E+00  0.0000E+00  0.0000E+00  0.0000E+00
    -49.841  0.0000E+00  0.0000E+00  0.0000E+00  0.0000E+00
    -49.658  0.0000E+00  0.0000E+00  0.0000E+00  0.0000E+00
    -49.476  0.0000E+00  0.0000E+00  0.0000E+00  0.0000E+00
    -49.293  0.0000E+00  0.0000E+00  0.0000E+00  0.0000E+00
    -49.110  0.1094E+02  0.1094E+02  0.2000E+01  0.2000E+01
    -48.927  0.0000E+00  0.0000E+00  0.4000E+01  0.4000E+01
    -48.744  0.1094E+02  0.1094E+02  0.6000E+01  0.6000E+01
    -48.561  0.0000E+00  0.0000E+00  0.6000E+01  0.6000E+01
    -48.378  0.0000E+00  0.0000E+00  0.6000E+01  0.6000E+01
    -48.195  0.0000E+00  0.0000E+00  0.6000E+01  0.6000E+01
    -48.012  0.0000E+00  0.0000E+00  0.6000E+01  0.6000E+01
    -47.830  0.0000E+00  0.0000E+00  0.6000E+01  0.6000E+01
    -47.647  0.0000E+00  0.0000E+00  0.6000E+01  0.6000E+01
    -47.464  0.0000E+00  0.0000E+00  0.6000E+01  0.6000E+01
    -47.281  0.0000E+00  0.0000E+00  0.6000E+01  0.6000E+01
    -47.098  0.0000E+00  0.0000E+00  0.6000E+01  0.6000E+01
    -46.915  0.0000E+00  0.0000E+00  0.6000E+01  0.6000E+01
    -46.732  0.0000E+00  0.0000E+00  0.6000E+01  0.6000E+01
    -46.549  0.0000E+00  0.0000E+00  0.6000E+01  0.6000E+01
    -46.366  0.0000E+00  0.0000E+00  0.6000E+01  0.6000E+01
    -46.184  0.0000E+00  0.0000E+00  0.6000E+01  0.6000E+01
    -46.001  0.0000E+00  0.0000E+00  0.6000E+01  0.6000E+01
    -45.818  0.0000E+00  0.0000E+00  0.6000E+01  0.6000E+01
    -45.635  0.0000E+00  0.0000E+00  0.6000E+01  0.6000E+01
    -45.452  0.0000E+00  0.0000E+00  0.6000E+01  0.6000E+01
    -45.269  0.0000E+00  0.0000E+00  0.6000E+01  0.6000E+01
    -45.086  0.0000E+00  0.0000E+00  0.6000E+01  0.6000E+01
    -44.903  0.0000E+00  0.0000E+00  0.6000E+01  0.6000E+01
    -44.720  0.0000E+00  0.0000E+00  0.6000E+01  0.6000E+01
    -44.538  0.0000E+00  0.0000E+00  0.6000E+01  0.6000E+01
    -44.355  0.0000E+00  0.0000E+00  0.6000E+01  0.6000E+01
    -44.172  0.0000E+00  0.0000E+00  0.6000E+01  0.6000E+01
    -43.989  0.0000E+00  0.0000E+00  0.6000E+01  0.6000E+01
    -43.806  0.0000E+00  0.0000E+00  0.6000E+01  0.6000E+01
    -43.623  0.0000E+00  0.0000E+00  0.6000E+01  0.6000E+01
    -43.440  0.0000E+00  0.0000E+00  0.6000E+01  0.6000E+01
    -43.257  0.0000E+00  0.0000E+00  0.6000E+01  0.6000E+01
    -43.074  0.0000E+00  0.0000E+00  0.6000E+01  0.6000E+01
    -42.892  0.0000E+00  0.0000E+00  0.6000E+01  0.6000E+01
    -42.709  0.0000E+00  0.0000E+00  0.6000E+01  0.6000E+01
    -42.526  0.0000E+00  0.0000E+00  0.6000E+01  0.6000E+01
    -42.343  0.0000E+00  0.0000E+00  0.6000E+01  0.6000E+01
    -42.160  0.0000E+00  0.0000E+00  0.6000E+01  0.6000E+01
    -41.977  0.0000E+00  0.0000E+00  0.6000E+01  0.6000E+01
    -41.794  0.0000E+00  0.0000E+00  0.6000E+01  0.6000E+01
    -41.611  0.0000E+00  0.0000E+00  0.6000E+01  0.6000E+01
    -41.429  0.0000E+00  0.0000E+00  0.6000E+01  0.6000E+01
    -41.246  0.0000E+00  0.0000E+00  0.6000E+01  0.6000E+01
    -41.063  0.0000E+00  0.0000E+00  0.6000E+01  0.6000E+01
    -40.880  0.0000E+00  0.0000E+00  0.6000E+01  0.6000E+01
    -40.697  0.0000E+00  0.0000E+00  0.6000E+01  0.6000E+01
    -40.514  0.0000E+00  0.0000E+00  0.6000E+01  0.6000E+01
    -40.331  0.0000E+00  0.0000E+00  0.6000E+01  0.6000E+01
    -40.148  0.0000E+00  0.0000E+00  0.6000E+01  0.6000E+01
    -39.965  0.0000E+00  0.0000E+00  0.6000E+01  0.6000E+01
    -39.783  0.0000E+00  0.0000E+00  0.6000E+01  0.6000E+01
    -39.600  0.0000E+00  0.0000E+00  0.6000E+01  0.6000E+01
    -39.417  0.0000E+00  0.0000E+00  0.6000E+01  0.6000E+01
    -39.234  0.0000E+00  0.0000E+00  0.6000E+01  0.6000E+01
    -39.051  0.0000E+00  0.0000E+00  0.6000E+01  0.6000E+01
    -38.868  0.0000E+00  0.0000E+00  0.6000E+01  0.6000E+01
    -38.685  0.0000E+00  0.0000E+00  0.6000E+01  0.6000E+01
    -38.502  0.0000E+00  0.0000E+00  0.6000E+01  0.6000E+01
    -38.319  0.0000E+00  0.0000E+00  0.6000E+01  0.6000E+01
    -38.137  0.0000E+00  0.0000E+00  0.6000E+01  0.6000E+01
    -37.954  0.0000E+00  0.0000E+00  0.6000E+01  0.6000E+01
    -37.771  0.0000E+00  0.0000E+00  0.6000E+01  0.6000E+01
    -37.588  0.0000E+00  0.0000E+00  0.6000E+01  0.6000E+01
    -37.405  0.0000E+00  0.0000E+00  0.6000E+01  0.6000E+01
    -37.222  0.0000E+00  0.0000E+00  0.6000E+01  0.6000E+01
    -37.039  0.0000E+00  0.0000E+00  0.6000E+01  0.6000E+01
    -36.856  0.0000E+00  0.0000E+00  0.6000E+01  0.6000E+01
    -36.673  0.0000E+00  0.0000E+00  0.6000E+01  0.6000E+01
    -36.491  0.0000E+00  0.0000E+00  0.6000E+01  0.6000E+01
    -36.308  0.0000E+00  0.0000E+00  0.6000E+01  0.6000E+01
    -36.125  0.0000E+00  0.0000E+00  0.6000E+01  0.6000E+01
    -35.942  0.0000E+00  0.0000E+00  0.6000E+01  0.6000E+01
    -35.759  0.0000E+00  0.0000E+00  0.6000E+01  0.6000E+01
    -35.576  0.0000E+00  0.0000E+00  0.6000E+01  0.6000E+01
    -35.393  0.0000E+00  0.0000E+00  0.6000E+01  0.6000E+01
    -35.210  0.0000E+00  0.0000E+00  0.6000E+01  0.6000E+01
    -35.027  0.0000E+00  0.0000E+00  0.6000E+01  0.6000E+01
    -34.845  0.0000E+00  0.0000E+00  0.6000E+01  0.6000E+01
    -34.662  0.0000E+00  0.0000E+00  0.6000E+01  0.6000E+01
    -34.479  0.0000E+00  0.0000E+00  0.6000E+01  0.6000E+01
    -34.296  0.0000E+00  0.0000E+00  0.6000E+01  0.6000E+01
    -34.113  0.0000E+00  0.0000E+00  0.6000E+01  0.6000E+01
    -33.930  0.0000E+00  0.0000E+00  0.6000E+01  0.6000E+01
    -33.747  0.0000E+00  0.0000E+00  0.6000E+01  0.6000E+01
    -33.564  0.0000E+00  0.0000E+00  0.6000E+01  0.6000E+01
    -33.381  0.0000E+00  0.0000E+00  0.6000E+01  0.6000E+01
    -33.199  0.0000E+00  0.0000E+00  0.6000E+01  0.6000E+01
    -33.016  0.0000E+00  0.0000E+00  0.6000E+01  0.6000E+01
    -32.833  0.0000E+00  0.0000E+00  0.6000E+01  0.6000E+01
    -32.650  0.0000E+00  0.0000E+00  0.6000E+01  0.6000E+01
    -32.467  0.0000E+00  0.0000E+00  0.6000E+01  0.6000E+01
    -32.284  0.0000E+00  0.0000E+00  0.6000E+01  0.6000E+01
    -32.101  0.0000E+00  0.0000E+00  0.6000E+01  0.6000E+01
    -31.918  0.0000E+00  0.0000E+00  0.6000E+01  0.6000E+01
    -31.735  0.0000E+00  0.0000E+00  0.6000E+01  0.6000E+01
    -31.553  0.0000E+00  0.0000E+00  0.6000E+01  0.6000E+01
    -31.370  0.0000E+00  0.0000E+00  0.6000E+01  0.6000E+01
    -31.187  0.0000E+00  0.0000E+00  0.6000E+01  0.6000E+01
    -31.004  0.0000E+00  0.0000E+00  0.6000E+01  0.6000E+01
    -30.821  0.0000E+00  0.0000E+00  0.6000E+01  0.6000E+01
    -30.638  0.0000E+00  0.0000E+00  0.6000E+01  0.6000E+01
    -30.455  0.0000E+00  0.0000E+00  0.6000E+01  0.6000E+01
    -30.272  0.0000E+00  0.0000E+00  0.6000E+01  0.6000E+01
    -30.089  0.0000E+00  0.0000E+00  0.6000E+01  0.6000E+01
    -29.907  0.0000E+00  0.0000E+00  0.6000E+01  0.6000E+01
    -29.724  0.0000E+00  0.0000E+00  0.6000E+01  0.6000E+01
    -29.541  0.0000E+00  0.0000E+00  0.6000E+01  0.6000E+01
    -29.358  0.0000E+00  0.0000E+00  0.6000E+01  0.6000E+01
    -29.175  0.1094E+02  0.1094E+02  0.8000E+01  0.8000E+01
    -28.992  0.0000E+00  0.0000E+00  0.8000E+01  0.8000E+01
    -28.809  0.0000E+00  0.0000E+00  0.8000E+01  0.8000E+01
    -28.626  0.0000E+00  0.0000E+00  0.8000E+01  0.8000E+01
    -28.443  0.0000E+00  0.0000E+00  0.8000E+01  0.8000E+01
    -28.261  0.0000E+00  0.0000E+00  0.8000E+01  0.8000E+01
    -28.078  0.0000E+00  0.0000E+00  0.8000E+01  0.8000E+01
    -27.895  0.0000E+00  0.0000E+00  0.8000E+01  0.8000E+01
    -27.712  0.0000E+00  0.0000E+00  0.8000E+01  0.8000E+01
    -27.529  0.0000E+00  0.0000E+00  0.8000E+01  0.8000E+01
    -27.346  0.1094E+02  0.1094E+02  0.1000E+02  0.1000E+02
    -27.163  0.0000E+00  0.0000E+00  0.1000E+02  0.1000E+02
    -26.980  0.0000E+00  0.0000E+00  0.1000E+02  0.1000E+02
    -26.797  0.1094E+02  0.1094E+02  0.1200E+02  0.1200E+02
    -26.615  0.0000E+00  0.0000E+00  0.1200E+02  0.1200E+02
    -26.432  0.0000E+00  0.0000E+00  0.1400E+02  0.1400E+02
    -26.249  0.0000E+00  0.0000E+00  0.1400E+02  0.1400E+02
    -26.066  0.2187E+02  0.2187E+02  0.1800E+02  0.1800E+02
    -25.883  0.0000E+00  0.0000E+00  0.1800E+02  0.1800E+02
    -25.700  0.0000E+00  0.0000E+00  0.1800E+02  0.1800E+02
    -25.517  0.0000E+00  0.0000E+00  0.1800E+02  0.1800E+02
    -25.334  0.0000E+00  0.0000E+00  0.1800E+02  0.1800E+02
    -25.151  0.0000E+00  0.0000E+00  0.1800E+02  0.1800E+02
    -24.969  0.0000E+00  0.0000E+00  0.1800E+02  0.1800E+02
    -24.786  0.0000E+00  0.0000E+00  0.1800E+02  0.1800E+02
    -24.603  0.0000E+00  0.0000E+00  0.1800E+02  0.1800E+02
    -24.420  0.0000E+00  0.0000E+00  0.1800E+02  0.1800E+02
    -24.237  0.6318E+01  0.6318E+01  0.1916E+02  0.1916E+02
    -24.054  0.0000E+00  0.0000E+00  0.2000E+02  0.2000E+02
    -23.871  0.0000E+00  0.0000E+00  0.2000E+02  0.2000E+02
    -23.688  0.0000E+00  0.0000E+00  0.2000E+02  0.2000E+02
    -23.505  0.0000E+00  0.0000E+00  0.2000E+02  0.2000E+02
    -23.323  0.0000E+00  0.0000E+00  0.2000E+02  0.2000E+02
    -23.140  0.0000E+00  0.0000E+00  0.2000E+02  0.2000E+02
    -22.957  0.1054E-06  0.1054E-06  0.2000E+02  0.2000E+02
    -22.774  0.0000E+00  0.0000E+00  0.2200E+02  0.2200E+02
    -22.591  0.0000E+00  0.0000E+00  0.2200E+02  0.2200E+02
    -22.408  0.3545E+00  0.3545E+00  0.2406E+02  0.2406E+02
    -22.225  0.1094E+02  0.1094E+02  0.2800E+02  0.2800E+02
    -22.042  0.5683E-07  0.5683E-07  0.3000E+02  0.3000E+02
    -21.859  0.0000E+00  0.0000E+00  0.3200E+02  0.3200E+02
    -21.677  0.0000E+00  0.0000E+00  0.3200E+02  0.3200E+02
    -21.494  0.0000E+00  0.0000E+00  0.3200E+02  0.3200E+02
    -21.311  0.1094E+02  0.1094E+02  0.3400E+02  0.3400E+02
    -21.128  0.3582E-12  0.3582E-12  0.3400E+02  0.3400E+02
    -20.945  0.0000E+00  0.0000E+00  0.3600E+02  0.3600E+02
    -20.762  0.6572E+01  0.6572E+01  0.3720E+02  0.3720E+02
    -20.579  0.0000E+00  0.0000E+00  0.3800E+02  0.3800E+02
    -20.396  0.0000E+00  0.0000E+00  0.3800E+02  0.3800E+02
    -20.213  0.0000E+00  0.0000E+00  0.3800E+02  0.3800E+02
    -20.031  0.0000E+00  0.0000E+00  0.3800E+02  0.3800E+02
    -19.848  0.0000E+00  0.0000E+00  0.3800E+02  0.3800E+02
    -19.665  0.0000E+00  0.0000E+00  0.3800E+02  0.3800E+02
    -19.482  0.1081E+02  0.1081E+02  0.3998E+02  0.3998E+02
    -19.299  0.0000E+00  0.0000E+00  0.4200E+02  0.4200E+02
    -19.116  0.0000E+00  0.0000E+00  0.4200E+02  0.4200E+02
    -18.933  0.0000E+00  0.0000E+00  0.4200E+02  0.4200E+02
    -18.750  0.1466E-09  0.1466E-09  0.4200E+02  0.4200E+02
    -18.567  0.0000E+00  0.0000E+00  0.4400E+02  0.4400E+02
    -18.385  0.1094E+02  0.1094E+02  0.4600E+02  0.4600E+02
    -18.202  0.0000E+00  0.0000E+00  0.4600E+02  0.4600E+02
    -18.019  0.6655E-08  0.6655E-08  0.4800E+02  0.4800E+02
    -17.836  0.2382E-03  0.2382E-03  0.5000E+02  0.5000E+02
    -17.653  0.0000E+00  0.0000E+00  0.5200E+02  0.5200E+02
    -17.470  0.0000E+00  0.0000E+00  0.5600E+02  0.5600E+02
    -17.287  0.5774E+00  0.5774E+00  0.5611E+02  0.5611E+02
    -17.104  0.0000E+00  0.0000E+00  0.5800E+02  0.5800E+02
    -16.922  0.2704E-04  0.2704E-04  0.5800E+02  0.5800E+02
    -16.739  0.0000E+00  0.0000E+00  0.6000E+02  0.6000E+02
    -16.556  0.1094E+02  0.1094E+02  0.6200E+02  0.6200E+02
    -16.373  0.0000E+00  0.0000E+00  0.6200E+02  0.6200E+02
    -16.190  0.0000E+00  0.0000E+00  0.6200E+02  0.6200E+02
    -16.007  0.0000E+00  0.0000E+00  0.6200E+02  0.6200E+02
    -15.824  0.1094E+02  0.1094E+02  0.6400E+02  0.6400E+02
    -15.641  0.0000E+00  0.0000E+00  0.6600E+02  0.6600E+02
    -15.458  0.0000E+00  0.0000E+00  0.6600E+02  0.6600E+02
    -15.276  0.0000E+00  0.0000E+00  0.6800E+02  0.6800E+02
    -15.093  0.0000E+00  0.0000E+00  0.7000E+02  0.7000E+02
    -14.910  0.0000E+00  0.0000E+00  0.7000E+02  0.7000E+02
    -14.727  0.2089E+02  0.2089E+02  0.7382E+02  0.7382E+02
    -14.544  0.0000E+00  0.0000E+00  0.7600E+02  0.7600E+02
    -14.361  0.0000E+00  0.0000E+00  0.7600E+02  0.7600E+02
    -14.178  0.0000E+00  0.0000E+00  0.7800E+02  0.7800E+02
    -13.995  0.2197E+02  0.2197E+02  0.8402E+02  0.8402E+02
    -13.812  0.1087E+02  0.1087E+02  0.8799E+02  0.8799E+02
    -13.630  0.1094E+02  0.1094E+02  0.9200E+02  0.9200E+02
    -13.447  0.1094E+02  0.1094E+02  0.9400E+02  0.9400E+02
    -13.264  0.1094E+02  0.1094E+02  0.9600E+02  0.9600E+02
    -13.081  0.1074E+02  0.1074E+02  0.9996E+02  0.9996E+02
    -12.898  0.6498E-09  0.6498E-09  0.1000E+03  0.1000E+03
    -12.715  0.1094E+02  0.1094E+02  0.1060E+03  0.1060E+03
    -12.532  0.1094E+02  0.1094E+02  0.1100E+03  0.1100E+03
    -12.349  0.1091E+02  0.1091E+02  0.1140E+03  0.1140E+03
    -12.166  0.1094E+02  0.1094E+02  0.1160E+03  0.1160E+03
    -11.984  0.1093E+02  0.1093E+02  0.1200E+03  0.1200E+03
    -11.801  0.0000E+00  0.0000E+00  0.1200E+03  0.1200E+03
    -11.618  0.1094E+02  0.1094E+02  0.1220E+03  0.1220E+03
    -11.435  0.9593E+01  0.9593E+01  0.1238E+03  0.1238E+03
    -11.252  0.1094E+02  0.1094E+02  0.1260E+03  0.1260E+03
    -11.069  0.8846E+01  0.8846E+01  0.1296E+03  0.1296E+03
    -10.886  0.0000E+00  0.0000E+00  0.1320E+03  0.1320E+03
    -10.703  0.1711E+02  0.1711E+02  0.1351E+03  0.1351E+03
    -10.520  0.0000E+00  0.0000E+00  0.1360E+03  0.1360E+03
    -10.338  0.7936E+01  0.7936E+01  0.1395E+03  0.1395E+03
    -10.155  0.0000E+00  0.0000E+00  0.1400E+03  0.1400E+03
     -9.972  0.1094E+02  0.1094E+02  0.1440E+03  0.1440E+03
     -9.789  0.1094E+02  0.1094E+02  0.1460E+03  0.1460E+03
     -9.606  0.1094E+02  0.1094E+02  0.1500E+03  0.1500E+03
     -9.423  0.0000E+00  0.0000E+00  0.1520E+03  0.1520E+03
     -9.240  0.0000E+00  0.0000E+00  0.1540E+03  0.1540E+03
     -9.057  0.0000E+00  0.0000E+00  0.1540E+03  0.1540E+03
     -8.874  0.1086E+02  0.1086E+02  0.1560E+03  0.1560E+03
     -8.692  0.1015E+02  0.1015E+02  0.1579E+03  0.1579E+03
     -8.509  0.0000E+00  0.0000E+00  0.1580E+03  0.1580E+03
     -8.326  0.1071E+02  0.1071E+02  0.1600E+03  0.1600E+03
     -8.143  0.0000E+00  0.0000E+00  0.1600E+03  0.1600E+03
     -7.960  0.0000E+00  0.0000E+00  0.1600E+03  0.1600E+03
     -7.777  0.0000E+00  0.0000E+00  0.1600E+03  0.1600E+03
     -7.594  0.1981E-09  0.1981E-09  0.1600E+03  0.1600E+03
     -7.411  0.0000E+00  0.0000E+00  0.1620E+03  0.1620E+03
     -7.228  0.1094E+02  0.1094E+02  0.1640E+03  0.1640E+03
     -7.046  0.0000E+00  0.0000E+00  0.1660E+03  0.1660E+03
     -6.863  0.0000E+00  0.0000E+00  0.1660E+03  0.1660E+03
     -6.680  0.0000E+00  0.0000E+00  0.1660E+03  0.1660E+03
     -6.497  0.0000E+00  0.0000E+00  0.1660E+03  0.1660E+03
     -6.314  0.0000E+00  0.0000E+00  0.1660E+03  0.1660E+03
     -6.131  0.0000E+00  0.0000E+00  0.1660E+03  0.1660E+03
     -5.948  0.0000E+00  0.0000E+00  0.1660E+03  0.1660E+03
     -5.765  0.7695E+01  0.7695E+01  0.1674E+03  0.1674E+03
     -5.582  0.0000E+00  0.0000E+00  0.1680E+03  0.1680E+03
     -5.400  0.0000E+00  0.0000E+00  0.1680E+03  0.1680E+03
     -5.217  0.0000E+00  0.0000E+00  0.1680E+03  0.1680E+03
     -5.034  0.0000E+00  0.0000E+00  0.1700E+03  0.1700E+03
     -4.851  0.1094E+02  0.1094E+02  0.1720E+03  0.1720E+03
     -4.668  0.0000E+00  0.0000E+00  0.1720E+03  0.1720E+03
     -4.485  0.0000E+00  0.0000E+00  0.1720E+03  0.1720E+03
     -4.302  0.1094E+02  0.1094E+02  0.1740E+03  0.1740E+03
     -4.119  0.1827E+01  0.1827E+01  0.1743E+03  0.1743E+03
     -3.936  0.3751E+00  0.3751E+00  0.1781E+03  0.1781E+03
     -3.754  0.0000E+00  0.0000E+00  0.1820E+03  0.1820E+03
     -3.571  0.0000E+00  0.0000E+00  0.1820E+03  0.1820E+03
     -3.388  0.0000E+00  0.0000E+00  0.1840E+03  0.1840E+03
     -3.205  0.1279E-04  0.1279E-04  0.1860E+03  0.1860E+03
     -3.022  0.0000E+00  0.0000E+00  0.1880E+03  0.1880E+03
     -2.839  0.0000E+00  0.0000E+00  0.1900E+03  0.1900E+03
     -2.656  0.1093E+02  0.1093E+02  0.1920E+03  0.1920E+03
     -2.473  0.0000E+00  0.0000E+00  0.1920E+03  0.1920E+03
     -2.290  0.0000E+00  0.0000E+00  0.1920E+03  0.1920E+03
     -2.108  0.0000E+00  0.0000E+00  0.1920E+03  0.1920E+03
     -1.925  0.1094E+02  0.1094E+02  0.1940E+03  0.1940E+03
     -1.742  0.3035E-14  0.3035E-14  0.1940E+03  0.1940E+03
     -1.559  0.1094E+02  0.1094E+02  0.1980E+03  0.1980E+03
     -1.376  0.6899E-11  0.6916E-11  0.2000E+03  0.2000E+03
     -1.193  0.2822E+01  0.2825E+01  0.2025E+03  0.2025E+03
     -1.010  0.2033E+02  0.2033E+02  0.2077E+03  0.2077E+03
     -0.827  0.0000E+00  0.0000E+00  0.2100E+03  0.2100E+03
     -0.644  0.1094E+02  0.1094E+02  0.2140E+03  0.2140E+03
     -0.462  0.1094E+02  0.1094E+02  0.2180E+03  0.2180E+03
     -0.279  0.1627E+02  0.1629E+02  0.2250E+03  0.2250E+03
     -0.096  0.1094E+02  0.1094E+02  0.2280E+03  0.2280E+03
      0.087  0.1102E+02  0.1102E+02  0.2320E+03  0.2320E+03
      0.270  0.2335E+02  0.2336E+02  0.2383E+03  0.2383E+03
      0.453  0.2187E+02  0.2187E+02  0.2460E+03  0.2460E+03
      0.636  0.2215E+02  0.2216E+02  0.2521E+03  0.2521E+03
      0.819  0.0000E+00  0.0000E+00  0.2560E+03  0.2560E+03
      1.002  0.0000E+00  0.0000E+00  0.2560E+03  0.2560E+03
      1.184  0.0000E+00  0.0000E+00  0.2560E+03  0.2560E+03
      1.367  0.0000E+00  0.0000E+00  0.2560E+03  0.2560E+03
      1.550  0.0000E+00  0.0000E+00  0.2560E+03  0.2560E+03
      1.733  0.0000E+00  0.0000E+00  0.2560E+03  0.2560E+03
      1.916  0.0000E+00  0.0000E+00  0.2560E+03  0.2560E+03
      2.099  0.0000E+00  0.0000E+00  0.2560E+03  0.2560E+03
      2.282  0.0000E+00  0.0000E+00  0.2560E+03  0.2560E+03
      2.465  0.0000E+00  0.0000E+00  0.2560E+03  0.2560E+03
      2.648  0.0000E+00  0.0000E+00  0.2560E+03  0.2560E+03
      2.830  0.0000E+00  0.0000E+00  0.2560E+03  0.2560E+03
      3.013  0.0000E+00  0.0000E+00  0.2560E+03  0.2560E+03
      3.196  0.0000E+00  0.0000E+00  0.2560E+03  0.2560E+03
