   55   55    1    2
  0.1454545E+03  0.2000000E-08  0.2000000E-08  0.2000000E-08  0.5000000E-15
  1.000000000000000E-004
  CAR 
 c2_oh2_ruthenium_mol                    
    166      1    128
 
  0.0000000E+00  0.0000000E+00  0.0000000E+00  0.1000000E+01
    1      -49.176305    -49.176306
    2      -49.013515    -49.013515
    3      -48.782403    -48.782403
    4      -29.218920    -29.218920
    5      -27.422121    -27.422121
    6      -26.851143    -26.851143
    7      -26.529328    -26.529328
    8      -26.141380    -26.141380
    9      -26.123237    -26.123237
   10      -24.238412    -24.238412
   11      -22.917081    -22.917081
   12      -22.511357    -22.511357
   13      -22.395088    -22.395088
   14      -22.290124    -22.290124
   15      -22.161641    -22.161641
   16      -22.001892    -22.001892
   17      -21.385784    -21.385783
   18      -21.074919    -21.074919
   19      -20.763961    -20.763961
   20      -19.498035    -19.498035
   21      -19.451808    -19.451808
   22      -18.703268    -18.703268
   23      -18.417753    -18.417753
   24      -18.133585    -18.133585
   25      -17.975853    -17.975853
   26      -17.807038    -17.807038
   27      -17.593337    -17.593337
   28      -17.578975    -17.578975
   29      -17.275836    -17.275836
   30      -16.889208    -16.889208
   31      -16.590034    -16.590034
   32      -15.872376    -15.872376
   33      -15.762101    -15.762101
   34      -15.363890    -15.363890
   35      -15.203670    -15.203670
   36      -14.750642    -14.750642
   37      -14.736352    -14.736352
   38      -14.677500    -14.677500
   39      -14.291609    -14.291609
   40      -14.091601    -14.091601
   41      -14.053702    -14.053702
   42      -14.006439    -14.006439
   43      -13.984675    -13.984675
   44      -13.830318    -13.830318
   45      -13.755642    -13.755642
   46      -13.701200    -13.701200
   47      -13.497837    -13.497837
   48      -13.335315    -13.335315
   49      -13.192930    -13.192930
   50      -13.095694    -13.095694
   51      -12.852422    -12.852422
   52      -12.796576    -12.796575
   53      -12.787674    -12.787674
   54      -12.656296    -12.656296
   55      -12.587703    -12.587703
   56      -12.477144    -12.477144
   57      -12.369272    -12.369272
   58      -12.201666    -12.201666
   59      -12.113625    -12.113625
   60      -12.009565    -12.009565
   61      -11.664310    -11.664310
   62      -11.443071    -11.443071
   63      -11.309106    -11.309106
   64      -11.202569    -11.202569
   65      -11.075265    -11.075265
   66      -11.003581    -11.003581
   67      -10.728595    -10.728595
   68      -10.704462    -10.704462
   69      -10.437878    -10.437878
   70      -10.341774    -10.341773
   71      -10.086235    -10.086235
   72      -10.043621    -10.043621
   73       -9.850416     -9.850416
   74       -9.732284     -9.732284
   75       -9.680744     -9.680744
   76       -9.580650     -9.580650
   77       -9.340788     -9.340788
   78       -8.891701     -8.891701
   79       -8.701881     -8.701881
   80       -8.340214     -8.340214
   81       -7.547410     -7.547410
   82       -7.290776     -7.290776
   83       -7.142485     -7.142485
   84       -5.769114     -5.769114
   85       -5.142586     -5.142586
   86       -4.925332     -4.925332
   87       -4.346667     -4.346667
   88       -4.112509     -4.112509
   89       -4.061948     -4.061948
   90       -3.923574     -3.923574
   91       -3.889803     -3.889802
   92       -3.491670     -3.491670
   93       -3.310034     -3.310034
   94       -3.171511     -3.171511
   95       -2.925363     -2.925361
   96       -2.678534     -2.678533
   97       -1.986126     -1.986148
   98       -1.684458     -1.684462
   99       -1.615194     -1.615205
  100       -1.479277     -1.479292
  101       -1.325824     -1.325826
  102       -1.188537     -1.188545
  103       -1.076436     -1.076455
  104       -1.017837     -1.017859
  105       -0.949736     -0.949750
  106       -0.741888     -0.741904
  107       -0.671507     -0.671525
  108       -0.618995     -0.619013
  109       -0.507871     -0.507884
  110       -0.397821     -0.397837
  111       -0.394086     -0.394112
  112       -0.313654     -0.313681
  113       -0.278475     -0.278501
  114       -0.166426     -0.166458
  115       -0.027734     -0.027762
  116        0.016235      0.016210
  117        0.104215      0.104182
  118        0.193398      0.193384
  119        0.194500      0.194476
  120        0.277775      0.277751
  121        0.304192      0.304151
  122        0.387190      0.387149
  123        0.426650      0.426630
  124        0.493467      0.493428
  125        0.567852      0.567813
  126        0.621891      0.621843
  127        0.647328      0.647291
  128        0.702256      0.702244
