       N       E                     dE             d eps       ncg     rms          rms(c)
DAV:   1     0.908951663977E+03    0.90895E+03   -0.58814E+04   768   0.974E+02
DAV:   2    -0.675949377096E+02   -0.97655E+03   -0.97010E+03  1024   0.160E+02
DAV:   3    -0.393586992265E+03   -0.32599E+03   -0.32557E+03   832   0.850E+01
DAV:   4    -0.412450698926E+03   -0.18864E+02   -0.18841E+02   640   0.259E+01
DAV:   5    -0.412700475787E+03   -0.24978E+00   -0.24965E+00   896   0.315E+00    0.570E+01
DAV:   6    -0.392728053224E+03    0.19972E+02   -0.31780E+02   512   0.228E+01    0.379E+01
DAV:   7    -0.382677543708E+03    0.10051E+02   -0.24094E+01   768   0.197E+01    0.231E+01
DAV:   8    -0.378730751448E+03    0.39468E+01   -0.16848E+01   768   0.909E+00    0.934E+00
DAV:   9    -0.377647655619E+03    0.10831E+01   -0.82446E+00   768   0.521E+00    0.361E+00
DAV:  10    -0.377610629940E+03    0.37026E-01   -0.22986E-01   768   0.123E+00    0.260E+00
DAV:  11    -0.377469055238E+03    0.14157E+00   -0.19153E-01   896   0.101E+00    0.112E+00
DAV:  12    -0.377395272670E+03    0.73783E-01   -0.11258E-01   768   0.738E-01    0.686E-01
DAV:  13    -0.377370081425E+03    0.25191E-01   -0.26925E-02   768   0.460E-01    0.447E-01
DAV:  14    -0.377363717458E+03    0.63640E-02   -0.11945E-02   768   0.283E-01    0.288E-01
DAV:  15    -0.377366444888E+03   -0.27274E-02   -0.51741E-03   768   0.199E-01    0.212E-01
DAV:  16    -0.377377325629E+03   -0.10881E-01   -0.29096E-03   768   0.158E-01    0.970E-02
DAV:  17    -0.377383211395E+03   -0.58858E-02   -0.91916E-04   768   0.893E-02    0.720E-02
DAV:  18    -0.377388685154E+03   -0.54738E-02   -0.45964E-04   768   0.657E-02    0.449E-02
DAV:  19    -0.377391541999E+03   -0.28568E-02   -0.17033E-04   768   0.383E-02    0.317E-02
DAV:  20    -0.377393257190E+03   -0.17152E-02   -0.51990E-05   768   0.225E-02    0.225E-02
DAV:  21    -0.377395015253E+03   -0.17581E-02   -0.56661E-05   768   0.205E-02    0.112E-02
DAV:  22    -0.377395841960E+03   -0.82671E-03   -0.21546E-05   704   0.115E-02    0.943E-03
DAV:  23    -0.377396397722E+03   -0.55576E-03   -0.12047E-05   640   0.778E-03    0.513E-03
DAV:  24    -0.377396749823E+03   -0.35210E-03   -0.93341E-06   640   0.600E-03    0.268E-03
DAV:  25    -0.377396881373E+03   -0.13155E-03   -0.19765E-06   640   0.291E-03    0.207E-03
DAV:  26    -0.377396994507E+03   -0.11313E-03   -0.18043E-06   640   0.246E-03    0.122E-03
DAV:  27    -0.377397054606E+03   -0.60099E-04   -0.90666E-07   640   0.175E-03    0.629E-04
DAV:  28    -0.377397080501E+03   -0.25895E-04   -0.23159E-07   640   0.100E-03    0.471E-04
DAV:  29    -0.377397093610E+03   -0.13109E-04   -0.27980E-08   640   0.660E-04    0.315E-04
DAV:  30    -0.377397103222E+03   -0.96122E-05    0.11622E-09   640   0.577E-04
   1 F= -.37739710E+03 E0= -.37739710E+03  d E =-.231576E-90  mag=    -0.0000
