 vasp.5.3.5 31Mar14 (build Apr 08 2014 12:00:03) complex                        
  
 VASP binary ID code NSC-NSCPATCH-BUILD02 date 2017.03.15  18:40:23
 running on   64 total cores
 distrk:  each k-point on   64 cores,    1 groups
 distr:  one band on NCORES_PER_BAND=   1 cores,   64 groups


--------------------------------------------------------------------------------------------------------


 INCAR:
 POTCAR:    PAW_PBE C_h 06Feb2004                 
 POTCAR:    PAW_PBE C_h 06Feb2004                 
 POTCAR:    PAW_PBE H 15Jun2001                   
 POTCAR:    PAW_PBE N_h 06Feb2004                 
 POTCAR:    PAW_PBE O_h 06Feb2004                 
 POTCAR:    PAW_PBE Ru_pv 28Jan2005               

 ----------------------------------------------------------------------------- 
|                                                                             |
|           W    W    AA    RRRRR   N    N  II  N    N   GGGG   !!!           |
|           W    W   A  A   R    R  NN   N  II  NN   N  G    G  !!!           |
|           W    W  A    A  R    R  N N  N  II  N N  N  G       !!!           |
|           W WW W  AAAAAA  RRRRR   N  N N  II  N  N N  G  GGG   !            |
|           WW  WW  A    A  R   R   N   NN  II  N   NN  G    G                |
|           W    W  A    A  R    R  N    N  II  N    N   GGGG   !!!           |
|                                                                             |
|      For optimal performance we recommend to set                            |
|        NCORE= 4 - approx SQRT( number of cores)                             |
|      NCORE specifies how many cores store one orbital (NPAR=cpu/NCORE).     |
|      This setting can  greatly improve the performance of VASP for DFT.     |
|      The default, NPAR=number of cores might be grossly inefficient         |
|      on modern multi-core architectures or massively parallel machines.     |
|      Do your own testing !!!!                                               |
|      Unfortunately you need to use the default for GW and RPA calculations. |
|      (for HF NCORE is supported but not extensively tested yet)             |
|                                                                             |
 ----------------------------------------------------------------------------- 

 POTCAR:    PAW_PBE C_h 06Feb2004                 
   VRHFIN =C: s2p2                                                              
   LEXCH  = PE                                                                  
   EATOM  =   147.1560 eV,   10.8157 Ry                                         
                                                                                
   TITEL  = PAW_PBE C_h 06Feb2004                                               
   LULTRA =        F    use ultrasoft PP ?                                      
   IUNSCR =        1    unscreen: 0-lin 1-nonlin 2-no                           
   RPACOR =    0.800    partial core radius                                     
   POMASS =   12.011; ZVAL   =    4.000    mass and valenz                      
   RCORE  =    1.100    outmost cutoff radius                                   
   RWIGS  =    1.630; RWIGS  =    0.863    wigner-seitz radius (au A)           
   ENMAX  =  700.000; ENMIN  =  500.000 eV                                      
   ICORE  =        2    local potential                                         
   LCOR   =        T    correct aug charges                                     
   LPAW   =        T    paw PP                                                  
   EAUG   =  946.768                                                            
   DEXC   =    0.000                                                            
   RMAX   =    1.128    core radius for proj-oper                               
   RAUG   =    1.300    factor for augmentation sphere                          
   RDEP   =    1.162    radius for radial grids                                 
   RDEPT  =    1.088    core radius for aug-charge                              
                                                                                
   Atomic configuration                                                         
    4 entries                                                                   
     n  l   j            E        occ.                                          
     1  0  0.50      -273.3789   2.0000                                         
     2  0  0.50       -13.7508   2.0000                                         
     2  1  0.50        -5.2854   2.0000                                         
     3  2  1.50        -5.4423   0.0000                                         
   Description                                                                  
     l       E           TYP  RCUT    TYP  RCUT                                 
     0    -13.7508458     23  1.100                                             
     0     -8.2022199     23  1.100                                             
     1     -5.2854383     23  1.100                                             
     1      1.1560700     23  1.100                                             
     2     -5.4423304      7  1.100                                             
  local pseudopotential read in
  partial core-charges read in
  partial kinetic energy density read in
  atomic valenz-charges read in
  non local Contribution for L=           0  read in
    real space projection operators read in
  non local Contribution for L=           0  read in
    real space projection operators read in
  non local Contribution for L=           1  read in
    real space projection operators read in
  non local Contribution for L=           1  read in
    real space projection operators read in
    PAW grid and wavefunctions read in
 
   number of l-projection  operators is LMAX  =           4
   number of lm-projection operators is LMMAX =           8
 
 POTCAR:    PAW_PBE C_h 06Feb2004                 
   VRHFIN =C: s2p2                                                              
   LEXCH  = PE                                                                  
   EATOM  =   147.1560 eV,   10.8157 Ry                                         
                                                                                
   TITEL  = PAW_PBE C_h 06Feb2004                                               
   LULTRA =        F    use ultrasoft PP ?                                      
   IUNSCR =        1    unscreen: 0-lin 1-nonlin 2-no                           
   RPACOR =    0.800    partial core radius                                     
   POMASS =   12.011; ZVAL   =    4.000    mass and valenz                      
   RCORE  =    1.100    outmost cutoff radius                                   
   RWIGS  =    1.630; RWIGS  =    0.863    wigner-seitz radius (au A)           
   ENMAX  =  700.000; ENMIN  =  500.000 eV                                      
   ICORE  =        2    local potential                                         
   LCOR   =        T    correct aug charges                                     
   LPAW   =        T    paw PP                                                  
   EAUG   =  946.768                                                            
   DEXC   =    0.000                                                            
   RMAX   =    1.128    core radius for proj-oper                               
   RAUG   =    1.300    factor for augmentation sphere                          
   RDEP   =    1.162    radius for radial grids                                 
   RDEPT  =    1.088    core radius for aug-charge                              
                                                                                
   Atomic configuration                                                         
    4 entries                                                                   
     n  l   j            E        occ.                                          
     1  0  0.50      -273.3789   2.0000                                         
     2  0  0.50       -13.7508   2.0000                                         
     2  1  0.50        -5.2854   2.0000                                         
     3  2  1.50        -5.4423   0.0000                                         
   Description                                                                  
     l       E           TYP  RCUT    TYP  RCUT                                 
     0    -13.7508458     23  1.100                                             
     0     -8.2022199     23  1.100                                             
     1     -5.2854383     23  1.100                                             
     1      1.1560700     23  1.100                                             
     2     -5.4423304      7  1.100                                             
  local pseudopotential read in
  partial core-charges read in
  partial kinetic energy density read in
  atomic valenz-charges read in
  non local Contribution for L=           0  read in
    real space projection operators read in
  non local Contribution for L=           0  read in
    real space projection operators read in
  non local Contribution for L=           1  read in
    real space projection operators read in
  non local Contribution for L=           1  read in
    real space projection operators read in
    PAW grid and wavefunctions read in
 
   number of l-projection  operators is LMAX  =           4
   number of lm-projection operators is LMMAX =           8
 
 POTCAR:    PAW_PBE H 15Jun2001                   
   VRHFIN =H: ultrasoft test                                                    
   LEXCH  = PE                                                                  
   EATOM  =    12.4884 eV,    0.9179 Ry                                         
                                                                                
   TITEL  = PAW_PBE H 15Jun2001                                                 
   LULTRA =        F    use ultrasoft PP ?                                      
   IUNSCR =        0    unscreen: 0-lin 1-nonlin 2-no                           
   RPACOR =    0.000    partial core radius                                     
   POMASS =    1.000; ZVAL   =    1.000    mass and valenz                      
   RCORE  =    1.100    outmost cutoff radius                                   
   RWIGS  =    0.700; RWIGS  =    0.370    wigner-seitz radius (au A)           
   ENMAX  =  250.000; ENMIN  =  200.000 eV                                      
   RCLOC  =    0.701    cutoff for local pot                                    
   LCOR   =        T    correct aug charges                                     
   LPAW   =        T    paw PP                                                  
   EAUG   =  400.000                                                            
   RMAX   =    1.123    core radius for proj-oper                               
   RAUG   =    1.200    factor for augmentation sphere                          
   RDEP   =    1.112    radius for radial grids                                 
   RDEPT  =    0.926    core radius for aug-charge                              
                                                                                
   Atomic configuration                                                         
    2 entries                                                                   
     n  l   j            E        occ.                                          
     1  0  0.50        -6.4927   1.0000                                         
     2  1  0.50        -3.4015   0.0000                                         
   Description                                                                  
     l       E           TYP  RCUT    TYP  RCUT                                 
     0     -6.4927494     23  1.100                                             
     0      6.8029130     23  1.100                                             
     1     -4.0817478     23  1.100                                             
  local pseudopotential read in
  atomic valenz-charges read in
  non local Contribution for L=           0  read in
    real space projection operators read in
  non local Contribution for L=           0  read in
    real space projection operators read in
  non local Contribution for L=           1  read in
    real space projection operators read in
    PAW grid and wavefunctions read in
 
   number of l-projection  operators is LMAX  =           3
   number of lm-projection operators is LMMAX =           5
 
 POTCAR:    PAW_PBE N_h 06Feb2004                 
   VRHFIN =N: s2p3                                                              
   LEXCH  = PE                                                                  
   EATOM  =   264.5486 eV,   19.4438 Ry                                         
                                                                                
   TITEL  = PAW_PBE N_h 06Feb2004                                               
   LULTRA =        F    use ultrasoft PP ?                                      
   IUNSCR =        1    unscreen: 0-lin 1-nonlin 2-no                           
   RPACOR =    0.800    partial core radius                                     
   POMASS =   14.001; ZVAL   =    5.000    mass and valenz                      
   RCORE  =    1.100    outmost cutoff radius                                   
   RWIGS  =    1.480; RWIGS  =    0.783    wigner-seitz radius (au A)           
   ENMAX  =  700.000; ENMIN  =  500.000 eV                                      
   ICORE  =        2    local potential                                         
   LCOR   =        T    correct aug charges                                     
   LPAW   =        T    paw PP                                                  
   EAUG   =  904.640                                                            
   DEXC   =    0.000                                                            
   RMAX   =    1.127    core radius for proj-oper                               
   RAUG   =    1.300    factor for augmentation sphere                          
   RDEP   =    1.115    radius for radial grids                                 
   RDEPT  =    1.106    core radius for aug-charge                              
                                                                                
   Atomic configuration                                                         
    4 entries                                                                   
     n  l   j            E        occ.                                          
     1  0  0.50      -384.7179   2.0000                                         
     2  0  0.50       -18.5828   2.0000                                         
     2  1  0.50        -7.0898   3.0000                                         
     3  2  1.50        -6.8029   0.0000                                         
   Description                                                                  
     l       E           TYP  RCUT    TYP  RCUT                                 
     0    -18.5828117     23  1.100                                             
     0    -15.0750597     23  1.100                                             
     1     -7.0897851     23  1.100                                             
     1     -1.9663412     23  1.100                                             
     2     -6.8029130      7  1.100                                             
  local pseudopotential read in
  partial core-charges read in
  partial kinetic energy density read in
  kinetic energy density of atom read in
  atomic valenz-charges read in
  non local Contribution for L=           0  read in
    real space projection operators read in
  non local Contribution for L=           0  read in
    real space projection operators read in
  non local Contribution for L=           1  read in
    real space projection operators read in
  non local Contribution for L=           1  read in
    real space projection operators read in
    PAW grid and wavefunctions read in
 
   number of l-projection  operators is LMAX  =           4
   number of lm-projection operators is LMMAX =           8
 
 POTCAR:    PAW_PBE O_h 06Feb2004                 
   VRHFIN =O: s2p4                                                              
   LEXCH  = PE                                                                  
   EATOM  =   432.3788 eV,   31.7789 Ry                                         
                                                                                
   TITEL  = PAW_PBE O_h 06Feb2004                                               
   LULTRA =        F    use ultrasoft PP ?                                      
   IUNSCR =        1    unscreen: 0-lin 1-nonlin 2-no                           
   RPACOR =    0.800    partial core radius                                     
   POMASS =   16.000; ZVAL   =    6.000    mass and valenz                      
   RCORE  =    1.100    outmost cutoff radius                                   
   RWIGS  =    1.400; RWIGS  =    0.741    wigner-seitz radius (au A)           
   ENMAX  =  700.000; ENMIN  =  500.000 eV                                      
   ICORE  =        2    local potential                                         
   LCOR   =        T    correct aug charges                                     
   LPAW   =        T    paw PP                                                  
   EAUG   =  888.804                                                            
   DEXC   =    0.000                                                            
   RMAX   =    1.128    core radius for proj-oper                               
   RAUG   =    1.300    factor for augmentation sphere                          
   RDEP   =    1.125    radius for radial grids                                 
   RDEPT  =    1.088    core radius for aug-charge                              
                                                                                
   Atomic configuration                                                         
    4 entries                                                                   
     n  l   j            E        occ.                                          
     1  0  0.50      -514.6923   2.0000                                         
     2  0  0.50       -23.9615   2.0000                                         
     2  1  0.50        -9.0305   4.0000                                         
     3  2  1.50        -9.5241   0.0000                                         
   Description                                                                  
     l       E           TYP  RCUT    TYP  RCUT                                 
     0    -23.9615319     23  1.100                                             
     0    -25.3221145     23  1.100                                             
     1     -9.0304911     23  1.100                                             
     1     -5.4802209     23  1.100                                             
     2     -9.5240782      7  1.100                                             
  local pseudopotential read in
  partial core-charges read in
  partial kinetic energy density read in
  atomic valenz-charges read in
  non local Contribution for L=           0  read in
    real space projection operators read in
  non local Contribution for L=           0  read in
    real space projection operators read in
  non local Contribution for L=           1  read in
    real space projection operators read in
  non local Contribution for L=           1  read in
    real space projection operators read in
    PAW grid and wavefunctions read in
 
   number of l-projection  operators is LMAX  =           4
   number of lm-projection operators is LMMAX =           8
 
 POTCAR:    PAW_PBE Ru_pv 28Jan2005               
   VRHFIN =Ru: 4p5s4d                                                           
   LEXCH  = PE                                                                  
   EATOM  =  1873.4746 eV,  137.6965 Ry                                         
                                                                                
   TITEL  = PAW_PBE Ru_pv 28Jan2005                                             
   LULTRA =        F    use ultrasoft PP ?                                      
   IUNSCR =        1    unscreen: 0-lin 1-nonlin 2-no                           
   RPACOR =    2.170    partial core radius                                     
   POMASS =  101.070; ZVAL   =   14.000    mass and valenz                      
   RCORE  =    2.500    outmost cutoff radius                                   
   RWIGS  =    2.650; RWIGS  =    1.402    wigner-seitz radius (au A)           
   ENMAX  =  240.049; ENMIN  =  180.037 eV                                      
   ICORE  =        3    local potential                                         
   LCOR   =        T    correct aug charges                                     
   LPAW   =        T    paw PP                                                  
   EAUG   =  430.792                                                            
   DEXC   =    0.000                                                            
   RMAX   =    2.546    core radius for proj-oper                               
   RAUG   =    1.300    factor for augmentation sphere                          
   RDEP   =    2.520    radius for radial grids                                 
   RDEPT  =    2.044    core radius for aug-charge                              
                                                                                
   Atomic configuration                                                         
   11 entries                                                                   
     n  l   j            E        occ.                                          
     1  0  0.50    -21933.2692   2.0000                                         
     2  0  0.50     -3153.4096   2.0000                                         
     2  1  1.50     -2823.9548   6.0000                                         
     3  0  0.50      -555.3322   2.0000                                         
     3  1  1.50      -447.1024   6.0000                                         
     3  2  2.50      -273.0570  10.0000                                         
     4  0  0.50       -76.3589   2.0000                                         
     4  1  1.50       -46.4050   6.0000                                         
     4  2  2.50        -5.2029   7.0000                                         
     5  0  0.50        -4.2392   1.0000                                         
     4  3  2.50        -1.3606   0.0000                                         
   Description                                                                  
     l       E           TYP  RCUT    TYP  RCUT                                 
     1    -46.4050190     23  2.100                                             
     1      4.0817478     23  2.100                                             
     2     -5.2028758     23  2.500                                             
     2     -6.5634584     23  2.500                                             
     0     -4.2392192     23  2.500                                             
     0      7.0918828     23  2.500                                             
     3     -5.4423304     23  2.500                                             
  local pseudopotential read in
  partial core-charges read in
  partial kinetic energy density read in
  atomic valenz-charges read in
  non local Contribution for L=           1  read in
    real space projection operators read in
  non local Contribution for L=           1  read in
    real space projection operators read in
  non local Contribution for L=           2  read in
    real space projection operators read in
  non local Contribution for L=           2  read in
    real space projection operators read in
  non local Contribution for L=           0  read in
    real space projection operators read in
  non local Contribution for L=           0  read in
    real space projection operators read in
    PAW grid and wavefunctions read in
 
   number of l-projection  operators is LMAX  =           6
   number of lm-projection operators is LMMAX =          18
 
 Optimization of the real space projectors (new method)

 maximal supplied QI-value         = 34.20
 optimisation between [QCUT,QGAM] = [ 13.34, 27.02] = [ 49.83,204.46] Ry 
 Optimized for a Real-space Cutoff    1.04 Angstroem

   l    n(q)    QCUT    max X(q) W(low)/X(q) W(high)/X(q)  e(spline) 
   0      8    13.340   134.812    0.72E-04    0.21E-03    0.27E-06
   0      8    13.340    80.524    0.70E-04    0.21E-03    0.27E-06
   1      8    13.340    79.026    0.21E-03    0.16E-03    0.33E-06
   1      8    13.340    45.188    0.20E-03    0.15E-03    0.33E-06
 Optimization of the real space projectors (new method)

 maximal supplied QI-value         = 34.20
 optimisation between [QCUT,QGAM] = [ 13.34, 27.02] = [ 49.83,204.46] Ry 
 Optimized for a Real-space Cutoff    1.04 Angstroem

   l    n(q)    QCUT    max X(q) W(low)/X(q) W(high)/X(q)  e(spline) 
   0      8    13.340   134.812    0.72E-04    0.21E-03    0.27E-06
   0      8    13.340    80.524    0.70E-04    0.21E-03    0.27E-06
   1      8    13.340    79.026    0.21E-03    0.16E-03    0.33E-06
   1      8    13.340    45.188    0.20E-03    0.15E-03    0.33E-06
 Optimization of the real space projectors (new method)

 maximal supplied QI-value         = 34.20
 optimisation between [QCUT,QGAM] = [ 13.34, 27.02] = [ 49.83,204.46] Ry 
 Optimized for a Real-space Cutoff    0.98 Angstroem

   l    n(q)    QCUT    max X(q) W(low)/X(q) W(high)/X(q)  e(spline) 
   0      8    13.340    19.460    0.18E-03    0.41E-04    0.19E-06
   0      8    13.340    12.209    0.17E-03    0.45E-04    0.18E-06
   1      7    13.340     4.655    0.16E-03    0.30E-03    0.14E-06
 Optimization of the real space projectors (new method)

 maximal supplied QI-value         = 34.20
 optimisation between [QCUT,QGAM] = [ 13.34, 27.02] = [ 49.83,204.46] Ry 
 Optimized for a Real-space Cutoff    1.04 Angstroem

   l    n(q)    QCUT    max X(q) W(low)/X(q) W(high)/X(q)  e(spline) 
   0      8    13.340   148.539    0.85E-04    0.19E-03    0.21E-06
   0      8    13.340   106.192    0.84E-04    0.19E-03    0.21E-06
   1      8    13.340    73.877    0.18E-03    0.11E-03    0.36E-06
   1      8    13.340    50.042    0.17E-03    0.11E-03    0.36E-06
 Optimization of the real space projectors (new method)

 maximal supplied QI-value         = 34.20
 optimisation between [QCUT,QGAM] = [ 13.34, 27.02] = [ 49.83,204.46] Ry 
 Optimized for a Real-space Cutoff    0.98 Angstroem

   l    n(q)    QCUT    max X(q) W(low)/X(q) W(high)/X(q)  e(spline) 
   0      8    13.340   280.207    0.16E-03    0.35E-03    0.14E-06
   0      8    13.340   228.978    0.16E-03    0.35E-03    0.14E-06
   1      7    13.340    86.127    0.23E-03    0.25E-04    0.30E-06
   1      7    13.340    65.368    0.22E-03    0.27E-04    0.30E-06
 Optimization of the real space projectors (new method)

 maximal supplied QI-value         = 15.12
 optimisation between [QCUT,QGAM] = [ 13.45, 27.06] = [ 50.69,205.06] Ry 
 Optimized for a Real-space Cutoff    1.40 Angstroem

   l    n(q)    QCUT    max X(q) W(low)/X(q) W(high)/X(q)  e(spline) 
   1     11    13.455     3.180    0.18E-04    0.25E-04    0.55E-07
   1     11    13.455     5.351    0.12E-03    0.15E-03    0.24E-06
   2     10    13.455    66.565    0.13E-03    0.46E-04    0.26E-06
   2     10    13.455    63.466    0.13E-03    0.47E-04    0.27E-06
   0     11    13.455    85.644    0.47E-04    0.16E-04    0.33E-06
   0     11    13.455    44.119    0.43E-04    0.15E-04    0.30E-06
  PAW_PBE C_h 06Feb2004                 :
 energy of atom  1       EATOM= -147.1560
 kinetic energy error for atom=    0.0286 (will be added to EATOM!!)
  PAW_PBE C_h 06Feb2004                 :
 energy of atom  2       EATOM= -147.1560
 kinetic energy error for atom=    0.0286 (will be added to EATOM!!)
  PAW_PBE H 15Jun2001                   :
 energy of atom  3       EATOM=  -12.4884
 kinetic energy error for atom=    0.0002 (will be added to EATOM!!)
  PAW_PBE N_h 06Feb2004                 :
 energy of atom  4       EATOM= -264.5486
 kinetic energy error for atom=    0.0847 (will be added to EATOM!!)
  PAW_PBE O_h 06Feb2004                 :
 energy of atom  5       EATOM= -432.3788
 kinetic energy error for atom=    0.1855 (will be added to EATOM!!)
  PAW_PBE Ru_pv 28Jan2005               :
 energy of atom  6       EATOM=-1873.4746
 kinetic energy error for atom=    0.0017 (will be added to EATOM!!)
 
 
 POSCAR: C C H N O Ru                            
  positions in direct lattice
  velocities in cartesian coordinates
 exchange correlation table for  LEXCH =        8
   RHO(1)=    0.500       N(1)  =     2000
   RHO(2)=  100.500       N(2)  =     4000
 


--------------------------------------------------------------------------------------------------------


 ion  position               nearest neighbor table
   1  0.740  0.529  0.535-  41 1.09  15 1.39  12 1.40
   2  0.438  0.566  0.328-  43 1.09   3 1.39   6 1.39
   3  0.456  0.524  0.381-  38 1.09  49 1.36   2 1.39
   4  0.474  0.615  0.450-  34 1.09  49 1.36   5 1.39
   5  0.456  0.660  0.399-  33 1.09   4 1.39   6 1.40
   6  0.438  0.635  0.337-  32 1.09   2 1.39   5 1.40
   7  0.523  0.330  0.675-  26 1.09   8 1.39  16 1.40
   8  0.497  0.372  0.626-  31 1.09  51 1.36   7 1.39
   9  0.602  0.419  0.606-  51 1.37  10 1.40  14 1.47
  10  0.631  0.378  0.654-  28 1.09  16 1.39   9 1.40
  11  0.293  0.477  0.568-  45 1.09  25 1.39  17 1.40
  12  0.701  0.566  0.490-  37 1.09  13 1.39   1 1.40
  13  0.633  0.554  0.487-  47 1.09  53 1.36  12 1.39
  14  0.640  0.469  0.567-  53 1.37  15 1.40   9 1.47
  15  0.708  0.480  0.573-  36 1.09   1 1.39  14 1.40
  16  0.591  0.332  0.689-  27 1.09  10 1.39   7 1.40
  17  0.362  0.489  0.564-  50 1.37  11 1.40  21 1.46
  18  0.408  0.622  0.691-  48 1.09  22 1.39  19 1.40
  19  0.476  0.626  0.677-  44 1.09  20 1.39  18 1.40
  20  0.503  0.586  0.627-  42 1.09  52 1.36  19 1.39
  21  0.398  0.538  0.604-  52 1.38  22 1.40  17 1.46
  22  0.369  0.578  0.654-  30 1.09  18 1.39  21 1.40
  23  0.373  0.406  0.482-  39 1.09  50 1.35  24 1.39
  24  0.305  0.392  0.484-  40 1.09  23 1.39  25 1.40
  25  0.264  0.428  0.528-  46 1.09  11 1.39  24 1.40
  26  0.490  0.295  0.701-   7 1.09
  27  0.613  0.300  0.727-  16 1.09
  28  0.684  0.381  0.665-  10 1.09
  29  0.542  0.362  0.461-  54 0.97
  30  0.316  0.573  0.664-  22 1.09
  31  0.444  0.371  0.614-   8 1.09
  32  0.424  0.668  0.296-   6 1.09
  33  0.456  0.713  0.410-   5 1.09
  34  0.488  0.634  0.499-   4 1.09
  35  0.569  0.418  0.415-  54 0.98
  36  0.738  0.450  0.608-  15 1.09
  37  0.723  0.605  0.459-  12 1.09
  38  0.456  0.470  0.375-   3 1.09
  39  0.406  0.379  0.449-  23 1.09
  40  0.284  0.353  0.452-  24 1.09
  41  0.793  0.537  0.539-   1 1.09
  42  0.556  0.588  0.614-  20 1.09
  43  0.424  0.543  0.280-   2 1.09
  44  0.509  0.660  0.704-  19 1.09
  45  0.263  0.506  0.603-  11 1.09
  46  0.211  0.418  0.531-  25 1.09
  47  0.601  0.582  0.453-  13 1.09
  48  0.385  0.653  0.729-  18 1.09
  49  0.474  0.548  0.441-   4 1.36   3 1.36  55 2.12
  50  0.402  0.453  0.521-  23 1.35  17 1.37  55 2.06
  51  0.535  0.416  0.592-   8 1.36   9 1.37  55 2.06
  52  0.465  0.543  0.590-  20 1.36  21 1.38  55 2.01
  53  0.601  0.507  0.524-  13 1.36  14 1.37  55 2.08
  54  0.531  0.406  0.442-  29 0.97  35 0.98  55 2.24
  55  0.501  0.481  0.519-  52 2.01  50 2.06  51 2.06  53 2.08  49 2.12  54 2.24
 
  LATTYP: Found a simple cubic cell.
 ALAT       =    20.0000000000
  
  Lattice vectors:
  
 A1 = (  20.0000000000,   0.0000000000,   0.0000000000)
 A2 = (   0.0000000000,  20.0000000000,   0.0000000000)
 A3 = (   0.0000000000,   0.0000000000,  20.0000000000)


Analysis of symmetry for initial positions (statically):
=====================================================================
 Subroutine PRICEL returns:
 Original cell was already a primitive cell.
 

 Routine SETGRP: Setting up the symmetry group for a 
 simple cubic supercell.


 Subroutine GETGRP returns: Found  1 space group operations
 (whereof  1 operations were pure point group operations)
 out of a pool of 48 trial point group operations.


The static configuration has the point symmetry C_1 .


Analysis of symmetry for dynamics (positions and initial velocities):
=====================================================================
 Subroutine PRICEL returns:
 Original cell was already a primitive cell.
 

 Routine SETGRP: Setting up the symmetry group for a 
 simple cubic supercell.


 Subroutine GETGRP returns: Found  1 space group operations
 (whereof  1 operations were pure point group operations)
 out of a pool of 48 trial point group operations.


The dynamic configuration has the point symmetry C_1 .


Analysis of constrained symmetry for selective dynamics:
=====================================================================
 Subroutine PRICEL returns:
 Original cell was already a primitive cell.
 

 Routine SETGRP: Setting up the symmetry group for a 
 simple cubic supercell.


 Subroutine GETGRP returns: Found  1 space group operations
 (whereof  1 operations were pure point group operations)
 out of a pool of 48 trial point group operations.


The constrained configuration has the point symmetry C_1 .


Analysis of magnetic symmetry:
=====================================================================
 Subroutine PRICEL returns:
 Original cell was already a primitive cell.
 

 Subroutine MAGSYM returns: Found  1 space group operations
 (whereof  1 operations were pure point group operations)
 out of a pool of  1 trial space group operations
 (whereof  1 operations were pure point group operations)
 and found also     1 'primitive' translations


The magnetic configuration has the point symmetry C_1 .
 
 
 KPOINTS: K-Points                                

Automatic generation of k-mesh.
Space group operators:
 irot       det(A)        alpha          n_x          n_y          n_z        tau_x        tau_y        tau_z
    1     1.000000     0.000000     1.000000     0.000000     0.000000     0.000000     0.000000     0.000000
 
 Subroutine IBZKPT returns following result:
 ===========================================
 
 Found      1 irreducible k-points:
 
 Following reciprocal coordinates:
            Coordinates               Weight
  0.000000  0.000000  0.000000      1.000000
 
 Following cartesian coordinates:
            Coordinates               Weight
  0.000000  0.000000  0.000000      1.000000
 


--------------------------------------------------------------------------------------------------------




 Dimension of arrays:
   k-points           NKPTS =      1   k-points in BZ     NKDIM =      1   number of bands    NBANDS=    128
   number of dos      NEDOS =    301   number of ions     NIONS =     55
   non local maximal  LDIM  =      6   non local SUM 2l+1 LMDIM =     18
   total plane-waves  NPLWV = ******
   max r-space proj   IRMAX =   8473   max aug-charges    IRDMAX= 268848
   dimension x,y,z NGX =   180 NGY =  180 NGZ =  180
   dimension x,y,z NGXF=   360 NGYF=  360 NGZF=  360
   support grid    NGXF=   720 NGYF=  720 NGZF=  720
   ions per type =               1  24  23   5   1   1
 NGX,Y,Z   is equivalent  to a cutoff of  14.96, 14.96, 14.96 a.u.
 NGXF,Y,Z  is equivalent  to a cutoff of  29.92, 29.92, 29.92 a.u.


 I would recommend the setting:
   dimension x,y,z NGX =   173 NGY =  173 NGZ =  173
 SYSTEM =  c2_oh2_ruthenium_mol                    
 POSCAR =  C C H N O Ru                            

 Startparameter for this run:
   NWRITE =      2    write-flag & timer
   PREC   = accura    normal or accurate (medium, high low for compatibility)
   ISTART =      0    job   : 0-new  1-cont  2-samecut
   ICHARG =      2    charge: 1-file 2-atom 10-const
   ISPIN  =      2    spin polarized calculation?
   LNONCOLLINEAR =      F non collinear calculations
   LSORBIT =      F    spin-orbit coupling
   INIWAV =      1    electr: 0-lowe 1-rand  2-diag
   LASPH  =      F    aspherical Exc in radial PAW
   METAGGA=      F    non-selfconsistent MetaGGA calc.

 Electronic Relaxation 1
   ENCUT  =  700.0 eV  51.45 Ry    7.17 a.u.  43.15 43.15 43.15*2*pi/ulx,y,z
   ENINI  =  700.0     initial cutoff
   ENAUG  =  946.8 eV  augmentation charge cutoff
   NELM   =     60;   NELMIN=  2; NELMDL= -5     # of ELM steps 
   EDIFF  = 0.1E-04   stopping-criterion for ELM
   LREAL  =      T    real-space projection
   NLSPLINE    = F    spline interpolate recip. space projectors
   LCOMPAT=      F    compatible to vasp.4.4
   GGA_COMPAT  = T    GGA compatible to vasp.4.4-vasp.4.6
   LMAXPAW     = -100 max onsite density
   LMAXMIX     =    2 max onsite mixed and CHGCAR
   VOSKOWN=      0    Vosko Wilk Nusair interpolation
   ROPT   =   -0.00025  -0.00025  -0.00025  -0.00025
   ROPT   =   -0.00025  -0.00025
 Ionic relaxation
   EDIFFG = -.1E-01   stopping-criterion for IOM
   NSW    =      0    number of steps for IOM
   NBLOCK =      1;   KBLOCK =      1    inner block; outer block 
   IBRION =     -1    ionic relax: 0-MD 1-quasi-New 2-CG
   NFREE  =      0    steps in history (QN), initial steepest desc. (CG)
   ISIF   =      2    stress and relaxation
   IWAVPR =     10    prediction:  0-non 1-charg 2-wave 3-comb
   ISYM   =      2    0-nonsym 1-usesym 2-fastsym
   LCORR  =      T    Harris-Foulkes like correction to forces

   POTIM  = 0.5000    time-step for ionic-motion
   TEIN   =    0.0    initial temperature
   TEBEG  =    0.0;   TEEND  =   0.0 temperature during run
   SMASS  =  -3.00    Nose mass-parameter (am)
   estimated Nose-frequenzy (Omega)   =  0.10E-29 period in steps =****** mass=  -0.914E-26a.u.
   SCALEE = 1.0000    scale energy and forces
   NPACO  =    256;   APACO  = 16.0  distance and # of slots for P.C.
   PSTRESS=    0.0 pullay stress

  Mass of Ions in am
   POMASS =  12.01 12.01  1.00 14.00 16.00101.07
  Ionic Valenz
   ZVAL   =   4.50  4.00  1.00  5.00  6.00 14.00
  Atomic Wigner-Seitz radii
   RWIGS  =  -1.00 -1.00 -1.00 -1.00 -1.00 -1.00
  virtual crystal weights 
   VCA    =   1.00  1.00  1.00  1.00  1.00  1.00
   NELECT =     166.0000    total number of electrons
   NUPDOWN=       0.0000    fix difference up-down

 DOS related values:
   EMIN   =  10.00;   EMAX   =-10.00  energy-range for DOS
   EFERMI =   0.00
   ISMEAR =     0;   SIGMA  =   0.01  broadening in eV -4-tet -1-fermi 0-gaus

 Electronic relaxation 2 (details)
   IALGO  =     38    algorithm
   LDIAG  =      T    sub-space diagonalisation (order eigenvalues)
   LSUBROT=      F    optimize rotation matrix (better conditioning)
   TURBO    =      0    0=normal 1=particle mesh
   IRESTART =      0    0=no restart 2=restart with 2 vectors
   NREBOOT  =      0    no. of reboots
   NMIN     =      0    reboot dimension
   EREF     =   0.00    reference energy to select bands
   IMIX   =      4    mixing-type and parameters
     AMIX     =   0.40;   BMIX     =  2.00
     AMIX_MAG =   1.60;   BMIX_MAG =  2.00
     AMIN     =   0.10
     WC   =   100.;   INIMIX=   1;  MIXPRE=   1;  MAXMIX= -45

 Intra band minimization:
   WEIMIN = 0.0000     energy-eigenvalue tresh-hold
   EBREAK =  0.20E-07  absolut break condition
   DEPER  =   0.30     relativ break condition  

   TIME   =   0.05     timestep for ELM

  volume/ion in A,a.u.               =     145.45       981.58
  Fermi-wavevector in a.u.,A,eV,Ry     =   0.449864  0.850119  2.753510  0.202377
  Thomas-Fermi vector in A             =   1.430192
 
 Write flags
   LWAVE  =      T    write WAVECAR
   LCHARG =      T    write CHGCAR
   LVTOT  =      F    write LOCPOT, total local potential
   LVHAR  =      F    write LOCPOT, Hartree potential only
   LELF   =      F    write electronic localiz. function (ELF)
   LORBIT =      0    0 simple, 1 ext, 2 COOP (PROOUT)


 Dipole corrections
   LMONO  =      F    monopole corrections only (constant potential shift)
   LDIPOL =      F    correct potential (dipole corrections)
   IDIPOL =      0    1-x, 2-y, 3-z, 4-all directions 
   EPSILON=  1.0000000 bulk dielectric constant

 Core level calculations are selected ICORELEVEL =  2
  CLNT =           1       CLN =     1
  CLL  =           0       CLZ = 0.500
 Exchange correlation treatment:
   GGA     =    --    GGA type
   LEXCH   =     8    internal setting for exchange type
   VOSKOWN=      0    Vosko Wilk Nusair interpolation
   LHFCALC =     F    Hartree Fock is set to
   LHFONE  =     F    Hartree Fock one center treatment
   AEXX    =    0.0000 exact exchange contribution

 Linear response parameters
   LEPSILON=     F    determine dielectric tensor
   LRPA    =     F    only Hartree local field effects (RPA)
   LNABLA  =     F    use nabla operator in PAW spheres
   LVEL    =     F    velocity operator in full k-point grid
   LINTERFAST=   F  fast interpolation
   KINTER  =     0    interpolate to denser k-point grid
   CSHIFT  =0.1000    complex shift for real part using Kramers Kronig
   OMEGAMAX=  -1.0    maximum frequency
   DEG_THRESHOLD= 0.2000000E-02 threshold for treating states as degnerate
   RTIME   =    0.100 relaxation time in fs

 Orbital magnetization related:
   ORBITALMAG=     F  switch on orbital magnetization
   LCHIMAG   =     F  perturbation theory with respect to B field
   DQ        =  0.001000  dq finite difference perturbation B field



--------------------------------------------------------------------------------------------------------


 Static calculation
 charge density and potential will be updated during run
 spin polarized calculation
 Variant of blocked Davidson
 Davidson routine will perform the subspace rotation
 perform sub-space diagonalisation
    after iterative eigenvector-optimisation
 modified Broyden-mixing scheme, WC =      100.0
 initial mixing is a Kerker type mixing with AMIX =  0.4000 and BMIX =      2.0000
 Hartree-type preconditioning will be used
 using additional bands           45
 real space projection scheme for non local part
 use partial core corrections
 calculate Harris-corrections to forces 
   (improved forces if not selfconsistent)
 use gradient corrections 
 use of overlap-Matrix (Vanderbilt PP)
 Gauss-broadening in eV      SIGMA  =   0.01


--------------------------------------------------------------------------------------------------------


  energy-cutoff  :      700.00
  volume of cell :     8000.00
      direct lattice vectors                 reciprocal lattice vectors
    20.000000000  0.000000000  0.000000000     0.050000000  0.000000000  0.000000000
     0.000000000 20.000000000  0.000000000     0.000000000  0.050000000  0.000000000
     0.000000000  0.000000000 20.000000000     0.000000000  0.000000000  0.050000000

  length of vectors
    20.000000000 20.000000000 20.000000000     0.050000000  0.050000000  0.050000000


 
 k-points in units of 2pi/SCALE and weight: K-Points                                
   0.00000000  0.00000000  0.00000000       1.000
 
 k-points in reciprocal lattice and weights: K-Points                                
   0.00000000  0.00000000  0.00000000       1.000
 
 position of ions in fractional coordinates (direct lattice) 
   0.73964927  0.52855915  0.53463181
   0.43793752  0.56561110  0.32757008
   0.45581208  0.52423376  0.38051465
   0.47372925  0.61530131  0.44986522
   0.45595175  0.65963312  0.39935201
   0.43785737  0.63472201  0.33675972
   0.52307882  0.32955005  0.67474498
   0.49710163  0.37190466  0.62618823
   0.60227374  0.41933300  0.60593616
   0.63096398  0.37761922  0.65422416
   0.29334713  0.47671938  0.56830116
   0.70082162  0.56612858  0.49044049
   0.63257913  0.55363620  0.48652424
   0.63952130  0.46927713  0.56732841
   0.70843899  0.47974495  0.57314689
   0.59134754  0.33224398  0.68903016
   0.36211554  0.48866484  0.56417415
   0.40790931  0.62211625  0.69058213
   0.47619960  0.62606623  0.67660612
   0.50295190  0.58590820  0.62668073
   0.39825425  0.53800137  0.60426081
   0.36904589  0.57756069  0.65398228
   0.37289802  0.40579857  0.48223443
   0.30486503  0.39173492  0.48443166
   0.26422003  0.42785518  0.52821594
   0.48989745  0.29510618  0.70074864
   0.61334240  0.29968355  0.72673159
   0.68424189  0.38076917  0.66478776
   0.54225374  0.36233861  0.46129841
   0.31579090  0.57306911  0.66420366
   0.44416348  0.37118871  0.61364770
   0.42392665  0.66833230  0.29622671
   0.45642762  0.71313270  0.40950260
   0.48809132  0.63358802  0.49907234
   0.56912778  0.41808713  0.41480476
   0.73767440  0.44963919  0.60776512
   0.72277620  0.60481012  0.45904817
   0.45570253  0.47012894  0.37468790
   0.40614333  0.37888556  0.44852541
   0.28443799  0.35306162  0.45202062
   0.79326502  0.53703787  0.53892527
   0.55589708  0.58769132  0.61440612
   0.42412006  0.54328620  0.27986105
   0.50894741  0.65984570  0.70400156
   0.26265982  0.50568523  0.60265428
   0.21072272  0.41813760  0.53105039
   0.60090654  0.58197914  0.45254259
   0.38544357  0.65296704  0.72941133
   0.47424490  0.54794204  0.44140236
   0.40180479  0.45306079  0.52108436
   0.53520702  0.41608490  0.59173240
   0.46544808  0.54254992  0.59041194
   0.60138410  0.50650621  0.52397638
   0.53073984  0.40562607  0.44215451
   0.50088568  0.48087016  0.51934246
 
 position of ions in cartesian coordinates  (Angst):
  14.79298537 10.57118301 10.69263621
   8.75875044 11.31222209  6.55140167
   9.11624161 10.48467523  7.61029296
   9.47458509 12.30602619  8.99730442
   9.11903505 13.19266234  7.98704025
   8.75714739 12.69444028  6.73519441
  10.46157638  6.59100110 13.49489953
   9.94203263  7.43809325 12.52376455
  12.04547477  8.38665999 12.11872314
  12.61927957  7.55238445 13.08448329
   5.86694270  9.53438759 11.36602327
  14.01643234 11.32257164  9.80880974
  12.65158254 11.07272405  9.73048485
  12.79042597  9.38554253 11.34656829
  14.16877978  9.59489901 11.46293786
  11.82695089  6.64487969 13.78060313
   7.24231077  9.77329687 11.28348299
   8.15818611 12.44232505 13.81164268
   9.52399198 12.52132464 13.53212240
  10.05903801 11.71816400 12.53361469
   7.96508499 10.76002740 12.08521614
   7.38091777 11.55121387 13.07964553
   7.45796037  8.11597149  9.64468853
   6.09730063  7.83469839  9.68863321
   5.28440067  8.55710369 10.56431882
   9.79794892  5.90212351 14.01497288
  12.26684793  5.99367109 14.53463185
  13.68483783  7.61538334 13.29575520
  10.84507475  7.24677213  9.22596819
   6.31581791 11.46138226 13.28407311
   8.88326966  7.42377422 12.27295397
   8.47853309 13.36664601  5.92453423
   9.12855243 14.26265408  8.19005201
   9.76182647 12.67176037  9.98144677
  11.38255564  8.36174255  8.29609511
  14.75348806  8.99278384 12.15530242
  14.45552391 12.09620238  9.18096343
   9.11405064  9.40257887  7.49375804
   8.12286663  7.57771114  8.97050829
   5.68875982  7.06123239  9.04041232
  15.86530045 10.74075733 10.77850539
  11.11794158 11.75382641 12.28812234
   8.48240128 10.86572407  5.59722093
  10.17894811 13.19691406 14.08003122
   5.25319634 10.11370460 12.05308551
   4.21445446  8.36275200 10.62100772
  12.01813087 11.63958272  9.05085175
   7.70887141 13.05934086 14.58822659
   9.48489793 10.95884088  8.82804729
   8.03609572  9.06121573 10.42168714
  10.70414049  8.32169803 11.83464804
   9.30896151 10.85099836 11.80823871
  12.02768196 10.13012430 10.47952760
  10.61479684  8.11252146  8.84309019
  10.01771355  9.61740316 10.38684921
 


--------------------------------------------------------------------------------------------------------


 k-point  1 :   0.0000 0.0000 0.0000  plane waves:  336427

 maximum and minimum number of plane-waves per node :    336427   336427

 maximum number of plane-waves:    336427
 maximum index in each direction: 
   IXMAX=   43   IYMAX=   43   IZMAX=   43
   IXMIN=  -43   IYMIN=  -43   IZMIN=  -43

 NGX is ok and might be reduce to 174
 NGY is ok and might be reduce to 174
 NGZ is ok and might be reduce to 174

 serial   3D FFT for wavefunctions
 parallel 3D FFT for charge:
    minimum data exchange during FFTs selected (reduces bandwidth)


 total amount of memory used by VASP on root node   877132. kBytes
========================================================================

   base      :      30000. kBytes
   nonlr-proj:      19361. kBytes
   fftplans  :     269516. kBytes
   grid      :     534988. kBytes
   one-center:       1710. kBytes
   wavefun   :      21557. kBytes
 
     INWAV:  cpu time    0.00: real time    0.00
 Broyden mixing: mesh for mixing (old mesh)
   NGX = 87   NGY = 87   NGZ = 87
  (NGX  =360   NGY  =360   NGZ  =360)
  gives a total of 658503 points

 initial charge density was supplied:
 charge density of overlapping atoms calculated
 number of electron     168.5000000 magnetization       0.0000000
 keeping initial charge density in first step


--------------------------------------------------------------------------------------------------------


 Maximum index for non-local projection operator         8166
 Maximum index for augmentation-charges         3214 (set IRDMAX)


--------------------------------------------------------------------------------------------------------


 First call to EWALD:  gamma=   0.089
 Maximum number of real-space cells 3x 3x 3
 Maximum number of reciprocal cells 3x 3x 3

 FEWALD executed in parallel
    FEWALD:  cpu time    0.00: real time    0.00


----------------------------------------- Iteration    1(   1)  ---------------------------------------


    POTLOK:  cpu time    4.71: real time    4.75
    SETDIJ:  cpu time    2.82: real time    2.82
     EDDAV:  cpu time   14.87: real time   15.79
       DOS:  cpu time    0.02: real time    0.02
    --------------------------------------------
      LOOP:  cpu time   22.42: real time   23.38

 eigenvalue-minimisations  :   768
 total energy-change (2. order) : 0.9089517E+03  (-0.5881384E+04)
 number of electron     168.5000000 magnetization       0.0000000
 augmentation part      168.5000000 magnetization       0.0000000

 Free energy of the ion-electron system (eV)
  ---------------------------------------------------
  alpha Z        PSCENC =        12.91687988
  Ewald energy   TEWEN  =     23263.60588892
  -Hartree energ DENC   =    -28865.91267448
  -exchange      EXHF   =         0.00000000
  -V(xc)+E(xc)   XCENC  =       400.93211402
  PAW double counting   =      5890.45591622    -5710.10246236
  entropy T*S    EENTRO =        -0.00000531
  eigenvalues    EBANDS =     -1676.34390411
  atomic energy  EATOM  =      7593.39991119
  ---------------------------------------------------
  free energy    TOTEN  =       908.95166398 eV

  energy without entropy =      908.95166928  energy(sigma->0) =      908.95166663


--------------------------------------------------------------------------------------------------------




----------------------------------------- Iteration    1(   2)  ---------------------------------------


     EDDAV:  cpu time   19.38: real time   20.43
       DOS:  cpu time    0.02: real time    0.02
    --------------------------------------------
      LOOP:  cpu time   19.40: real time   20.44

 eigenvalue-minimisations  :  1024
 total energy-change (2. order) :-0.9765466E+03  (-0.9701046E+03)
 number of electron     168.5000000 magnetization       0.0000000
 augmentation part      168.5000000 magnetization       0.0000000

 Free energy of the ion-electron system (eV)
  ---------------------------------------------------
  alpha Z        PSCENC =        12.91687988
  Ewald energy   TEWEN  =     23263.60588892
  -Hartree energ DENC   =    -28865.91267448
  -exchange      EXHF   =         0.00000000
  -V(xc)+E(xc)   XCENC  =       400.93211402
  PAW double counting   =      5890.45591622    -5710.10246236
  entropy T*S    EENTRO =        -0.00000000
  eigenvalues    EBANDS =     -2652.89051111
  atomic energy  EATOM  =      7593.39991119
  ---------------------------------------------------
  free energy    TOTEN  =       -67.59493771 eV

  energy without entropy =      -67.59493771  energy(sigma->0) =      -67.59493771


--------------------------------------------------------------------------------------------------------




----------------------------------------- Iteration    1(   3)  ---------------------------------------


     EDDAV:  cpu time   16.16: real time   17.10
       DOS:  cpu time    0.01: real time    0.01
    --------------------------------------------
      LOOP:  cpu time   16.17: real time   17.11

 eigenvalue-minimisations  :   832
 total energy-change (2. order) :-0.3259921E+03  (-0.3255650E+03)
 number of electron     168.5000000 magnetization       0.0000000
 augmentation part      168.5000000 magnetization       0.0000000

 Free energy of the ion-electron system (eV)
  ---------------------------------------------------
  alpha Z        PSCENC =        12.91687988
  Ewald energy   TEWEN  =     23263.60588892
  -Hartree energ DENC   =    -28865.91267448
  -exchange      EXHF   =         0.00000000
  -V(xc)+E(xc)   XCENC  =       400.93211402
  PAW double counting   =      5890.45591622    -5710.10246236
  entropy T*S    EENTRO =        -0.00000000
  eigenvalues    EBANDS =     -2978.88256566
  atomic energy  EATOM  =      7593.39991119
  ---------------------------------------------------
  free energy    TOTEN  =      -393.58699227 eV

  energy without entropy =     -393.58699227  energy(sigma->0) =     -393.58699227


--------------------------------------------------------------------------------------------------------




----------------------------------------- Iteration    1(   4)  ---------------------------------------


     EDDAV:  cpu time   12.84: real time   13.54
       DOS:  cpu time    0.00: real time    0.00
    --------------------------------------------
      LOOP:  cpu time   12.85: real time   13.54

 eigenvalue-minimisations  :   640
 total energy-change (2. order) :-0.1886371E+02  (-0.1884090E+02)
 number of electron     168.5000000 magnetization       0.0000000
 augmentation part      168.5000000 magnetization       0.0000000

 Free energy of the ion-electron system (eV)
  ---------------------------------------------------
  alpha Z        PSCENC =        12.91687988
  Ewald energy   TEWEN  =     23263.60588892
  -Hartree energ DENC   =    -28865.91267448
  -exchange      EXHF   =         0.00000000
  -V(xc)+E(xc)   XCENC  =       400.93211402
  PAW double counting   =      5890.45591622    -5710.10246236
  entropy T*S    EENTRO =        -0.00000000
  eigenvalues    EBANDS =     -2997.74627232
  atomic energy  EATOM  =      7593.39991119
  ---------------------------------------------------
  free energy    TOTEN  =      -412.45069893 eV

  energy without entropy =     -412.45069893  energy(sigma->0) =     -412.45069893


--------------------------------------------------------------------------------------------------------




----------------------------------------- Iteration    1(   5)  ---------------------------------------


     EDDAV:  cpu time   17.26: real time   18.27
       DOS:  cpu time    0.01: real time    0.01
    CHARGE:  cpu time    5.13: real time    5.15
    MIXING:  cpu time    0.07: real time    0.08
    --------------------------------------------
      LOOP:  cpu time   22.47: real time   23.51

 eigenvalue-minimisations  :   896
 total energy-change (2. order) :-0.2497769E+00  (-0.2496524E+00)
 number of electron     166.0000000 magnetization       0.0000000
 augmentation part        3.6562115 magnetization       0.0000055

 Broyden mixing:
  rms(total) = 0.56957E+01    rms(broyden)= 0.56950E+01
  rms(prec ) = 0.60556E+01
  weight for this iteration     100.00

 Free energy of the ion-electron system (eV)
  ---------------------------------------------------
  alpha Z        PSCENC =        12.91687988
  Ewald energy   TEWEN  =     23263.60588892
  -Hartree energ DENC   =    -28865.91267448
  -exchange      EXHF   =         0.00000000
  -V(xc)+E(xc)   XCENC  =       400.93211402
  PAW double counting   =      5890.45591622    -5710.10246236
  entropy T*S    EENTRO =        -0.00000000
  eigenvalues    EBANDS =     -2997.99604918
  atomic energy  EATOM  =      7593.39991119
  ---------------------------------------------------
  free energy    TOTEN  =      -412.70047579 eV

  energy without entropy =     -412.70047579  energy(sigma->0) =     -412.70047579


--------------------------------------------------------------------------------------------------------




----------------------------------------- Iteration    1(   6)  ---------------------------------------


    POTLOK:  cpu time    4.58: real time    4.60
    SETDIJ:  cpu time    2.78: real time    2.79
     EDDAV:  cpu time   11.02: real time   11.65
       DOS:  cpu time    0.01: real time    0.01
    CHARGE:  cpu time    5.11: real time    5.14
    MIXING:  cpu time    0.15: real time    0.15
    --------------------------------------------
      LOOP:  cpu time   23.66: real time   24.35

 eigenvalue-minimisations  :   512
 total energy-change (2. order) : 0.1997242E+02  (-0.3178020E+02)
 number of electron     166.0000000 magnetization      -0.0000000
 augmentation part        6.4132608 magnetization       0.0000347

 Broyden mixing:
  rms(total) = 0.37935E+01    rms(broyden)= 0.37934E+01
  rms(prec ) = 0.39548E+01
  weight for this iteration     100.00

 eigenvalues of (default mixing * dielectric matrix)
  average eigenvalue GAMMA=   1.1011
  1.1011

 Free energy of the ion-electron system (eV)
  ---------------------------------------------------
  alpha Z        PSCENC =        12.91687988
  Ewald energy   TEWEN  =     23263.60588892
  -Hartree energ DENC   =    -28875.88444011
  -exchange      EXHF   =         0.00000000
  -V(xc)+E(xc)   XCENC  =       406.54513050
  PAW double counting   =     20880.00208918   -20712.12176153
  entropy T*S    EENTRO =        -0.00000000
  eigenvalues    EBANDS =     -2961.19175126
  atomic energy  EATOM  =      7593.39991119
  ---------------------------------------------------
  free energy    TOTEN  =      -392.72805322 eV

  energy without entropy =     -392.72805322  energy(sigma->0) =     -392.72805322


--------------------------------------------------------------------------------------------------------




----------------------------------------- Iteration    1(   7)  ---------------------------------------


    POTLOK:  cpu time    4.57: real time    4.59
    SETDIJ:  cpu time    2.78: real time    2.81
     EDDAV:  cpu time   15.19: real time   16.48
       DOS:  cpu time    0.05: real time    0.05
    CHARGE:  cpu time    5.24: real time    5.46
    MIXING:  cpu time    0.13: real time    0.13
    --------------------------------------------
      LOOP:  cpu time   27.96: real time   29.52

 eigenvalue-minimisations  :   768
 total energy-change (2. order) : 0.1005051E+02  (-0.2409385E+01)
 number of electron     166.0000000 magnetization      -0.0000000
 augmentation part        5.5093320 magnetization       0.0000086

 Broyden mixing:
  rms(total) = 0.23132E+01    rms(broyden)= 0.23132E+01
  rms(prec ) = 0.23804E+01
  weight for this iteration     100.00

 eigenvalues of (default mixing * dielectric matrix)
  average eigenvalue GAMMA=   1.4860
  0.7638  2.2082

 Free energy of the ion-electron system (eV)
  ---------------------------------------------------
  alpha Z        PSCENC =        12.91687988
  Ewald energy   TEWEN  =     23263.60588892
  -Hartree energ DENC   =    -29008.66898401
  -exchange      EXHF   =         0.00000000
  -V(xc)+E(xc)   XCENC  =       412.11293860
  PAW double counting   =     37044.92440279   -36872.36597117
  entropy T*S    EENTRO =        -0.00000000
  eigenvalues    EBANDS =     -2828.60260992
  atomic energy  EATOM  =      7593.39991119
  ---------------------------------------------------
  free energy    TOTEN  =      -382.67754371 eV

  energy without entropy =     -382.67754371  energy(sigma->0) =     -382.67754371


--------------------------------------------------------------------------------------------------------




----------------------------------------- Iteration    1(   8)  ---------------------------------------


    POTLOK:  cpu time    4.58: real time    4.60
    SETDIJ:  cpu time    2.79: real time    2.80
     EDDAV:  cpu time   15.26: real time   16.54
       DOS:  cpu time    0.06: real time    0.06
    CHARGE:  cpu time    5.19: real time    5.21
    MIXING:  cpu time    0.10: real time    0.10
    --------------------------------------------
      LOOP:  cpu time   27.98: real time   29.31

 eigenvalue-minimisations  :   768
 total energy-change (2. order) : 0.3946792E+01  (-0.1684794E+01)
 number of electron     166.0000000 magnetization      -0.0000000
 augmentation part        4.7944221 magnetization       0.0000099

 Broyden mixing:
  rms(total) = 0.93398E+00    rms(broyden)= 0.93394E+00
  rms(prec ) = 0.10328E+01
  weight for this iteration     100.00

 eigenvalues of (default mixing * dielectric matrix)
  average eigenvalue GAMMA=   1.4666
  2.7069  0.8464  0.8464

 Free energy of the ion-electron system (eV)
  ---------------------------------------------------
  alpha Z        PSCENC =        12.91687988
  Ewald energy   TEWEN  =     23263.60588892
  -Hartree energ DENC   =    -29162.28845767
  -exchange      EXHF   =         0.00000000
  -V(xc)+E(xc)   XCENC  =       420.23336092
  PAW double counting   =     71530.47391337   -71355.13407538
  entropy T*S    EENTRO =        -0.00000000
  eigenvalues    EBANDS =     -2681.93817268
  atomic energy  EATOM  =      7593.39991119
  ---------------------------------------------------
  free energy    TOTEN  =      -378.73075145 eV

  energy without entropy =     -378.73075145  energy(sigma->0) =     -378.73075145


--------------------------------------------------------------------------------------------------------




----------------------------------------- Iteration    1(   9)  ---------------------------------------


    POTLOK:  cpu time    4.58: real time    4.60
    SETDIJ:  cpu time    2.80: real time    2.81
     EDDAV:  cpu time   15.15: real time   16.42
       DOS:  cpu time    0.05: real time    0.05
    CHARGE:  cpu time    5.21: real time    5.23
    MIXING:  cpu time    0.07: real time    0.07
    --------------------------------------------
      LOOP:  cpu time   27.86: real time   29.19

 eigenvalue-minimisations  :   768
 total energy-change (2. order) : 0.1083096E+01  (-0.8244641E+00)
 number of electron     166.0000000 magnetization      -0.0000000
 augmentation part        5.3091537 magnetization       0.0000028

 Broyden mixing:
  rms(total) = 0.36069E+00    rms(broyden)= 0.36065E+00
  rms(prec ) = 0.40186E+00
  weight for this iteration     100.00

 eigenvalues of (default mixing * dielectric matrix)
  average eigenvalue GAMMA=   1.3216
  2.5239  1.2305  0.7661  0.7661

 Free energy of the ion-electron system (eV)
  ---------------------------------------------------
  alpha Z        PSCENC =        12.91687988
  Ewald energy   TEWEN  =     23263.60588892
  -Hartree energ DENC   =    -29170.83353602
  -exchange      EXHF   =         0.00000000
  -V(xc)+E(xc)   XCENC  =       422.47157732
  PAW double counting   =     82740.18318702   -82567.08456368
  entropy T*S    EENTRO =        -0.00000000
  eigenvalues    EBANDS =     -2672.30700026
  atomic energy  EATOM  =      7593.39991119
  ---------------------------------------------------
  free energy    TOTEN  =      -377.64765562 eV

  energy without entropy =     -377.64765562  energy(sigma->0) =     -377.64765562


--------------------------------------------------------------------------------------------------------




----------------------------------------- Iteration    1(  10)  ---------------------------------------


    POTLOK:  cpu time    4.58: real time    4.60
    SETDIJ:  cpu time    2.79: real time    2.79
     EDDAV:  cpu time   15.28: real time   16.55
       DOS:  cpu time    0.05: real time    0.05
    CHARGE:  cpu time    5.19: real time    5.20
    MIXING:  cpu time    0.14: real time    0.14
    --------------------------------------------
      LOOP:  cpu time   28.04: real time   29.34

 eigenvalue-minimisations  :   768
 total energy-change (2. order) : 0.3702568E-01  (-0.2298550E-01)
 number of electron     166.0000000 magnetization      -0.0000000
 augmentation part        5.3521563 magnetization       0.0000019

 Broyden mixing:
  rms(total) = 0.25955E+00    rms(broyden)= 0.25954E+00
  rms(prec ) = 0.30658E+00
  weight for this iteration     100.00

 eigenvalues of (default mixing * dielectric matrix)
  average eigenvalue GAMMA=   1.3821
  2.4872  1.8253  0.8074  0.8074  0.9830

 Free energy of the ion-electron system (eV)
  ---------------------------------------------------
  alpha Z        PSCENC =        12.91687988
  Ewald energy   TEWEN  =     23263.60588892
  -Hartree energ DENC   =    -29160.84676953
  -exchange      EXHF   =         0.00000000
  -V(xc)+E(xc)   XCENC  =       422.45599653
  PAW double counting   =     81302.46542602   -81129.56024425
  entropy T*S    EENTRO =        -0.00000000
  eigenvalues    EBANDS =     -2682.04771870
  atomic energy  EATOM  =      7593.39991119
  ---------------------------------------------------
  free energy    TOTEN  =      -377.61062994 eV

  energy without entropy =     -377.61062994  energy(sigma->0) =     -377.61062994


--------------------------------------------------------------------------------------------------------




----------------------------------------- Iteration    1(  11)  ---------------------------------------


    POTLOK:  cpu time    4.59: real time    4.60
    SETDIJ:  cpu time    2.81: real time    2.81
     EDDAV:  cpu time   17.29: real time   18.64
       DOS:  cpu time    0.06: real time    0.06
    CHARGE:  cpu time    5.33: real time    5.34
    MIXING:  cpu time    0.13: real time    0.13
    --------------------------------------------
      LOOP:  cpu time   30.20: real time   31.59

 eigenvalue-minimisations  :   896
 total energy-change (2. order) : 0.1415747E+00  (-0.1915255E-01)
 number of electron     166.0000000 magnetization      -0.0000000
 augmentation part        5.2914082 magnetization      -0.0000038

 Broyden mixing:
  rms(total) = 0.11191E+00    rms(broyden)= 0.11191E+00
  rms(prec ) = 0.15544E+00
  weight for this iteration     100.00

 eigenvalues of (default mixing * dielectric matrix)
  average eigenvalue GAMMA=   1.4795
  2.6289  2.6289  0.8232  0.8232  1.0357  0.9372

 Free energy of the ion-electron system (eV)
  ---------------------------------------------------
  alpha Z        PSCENC =        12.91687988
  Ewald energy   TEWEN  =     23263.60588892
  -Hartree energ DENC   =    -29160.18091298
  -exchange      EXHF   =         0.00000000
  -V(xc)+E(xc)   XCENC  =       423.15209734
  PAW double counting   =     81929.49692986   -81756.33390927
  entropy T*S    EENTRO =        -0.00000000
  eigenvalues    EBANDS =     -2683.52594019
  atomic energy  EATOM  =      7593.39991119
  ---------------------------------------------------
  free energy    TOTEN  =      -377.46905524 eV

  energy without entropy =     -377.46905524  energy(sigma->0) =     -377.46905524


--------------------------------------------------------------------------------------------------------




----------------------------------------- Iteration    1(  12)  ---------------------------------------


    POTLOK:  cpu time    4.59: real time    4.61
    SETDIJ:  cpu time    2.80: real time    2.80
     EDDAV:  cpu time   15.27: real time   16.54
       DOS:  cpu time    0.05: real time    0.05
    CHARGE:  cpu time    5.06: real time    5.07
    MIXING:  cpu time    0.15: real time    0.15
    --------------------------------------------
      LOOP:  cpu time   27.92: real time   29.23

 eigenvalue-minimisations  :   768
 total energy-change (2. order) : 0.7378257E-01  (-0.1125782E-01)
 number of electron     166.0000000 magnetization      -0.0000000
 augmentation part        5.2444844 magnetization       0.0000049

 Broyden mixing:
  rms(total) = 0.68564E-01    rms(broyden)= 0.68560E-01
  rms(prec ) = 0.10043E+00
  weight for this iteration     100.00

 eigenvalues of (default mixing * dielectric matrix)
  average eigenvalue GAMMA=   1.4758
  2.8271  2.8271  0.8349  0.8349  0.9832  1.0118  1.0118

 Free energy of the ion-electron system (eV)
  ---------------------------------------------------
  alpha Z        PSCENC =        12.91687988
  Ewald energy   TEWEN  =     23263.60588892
  -Hartree energ DENC   =    -29155.86926365
  -exchange      EXHF   =         0.00000000
  -V(xc)+E(xc)   XCENC  =       423.75764691
  PAW double counting   =     81775.15551693   -81601.87184802
  entropy T*S    EENTRO =        -0.00000000
  eigenvalues    EBANDS =     -2688.49000482
  atomic energy  EATOM  =      7593.39991119
  ---------------------------------------------------
  free energy    TOTEN  =      -377.39527267 eV

  energy without entropy =     -377.39527267  energy(sigma->0) =     -377.39527267


--------------------------------------------------------------------------------------------------------




----------------------------------------- Iteration    1(  13)  ---------------------------------------


    POTLOK:  cpu time    4.58: real time    4.60
    SETDIJ:  cpu time    2.81: real time    2.81
     EDDAV:  cpu time   15.23: real time   16.55
       DOS:  cpu time    0.05: real time    0.05
    CHARGE:  cpu time    5.05: real time    5.17
    MIXING:  cpu time    0.26: real time    0.26
    --------------------------------------------
      LOOP:  cpu time   27.97: real time   29.43

 eigenvalue-minimisations  :   768
 total energy-change (2. order) : 0.2519124E-01  (-0.2692508E-02)
 number of electron     166.0000000 magnetization      -0.0000000
 augmentation part        5.2562444 magnetization      -0.0000124

 Broyden mixing:
  rms(total) = 0.44743E-01    rms(broyden)= 0.44742E-01
  rms(prec ) = 0.66771E-01
  weight for this iteration     100.00

 eigenvalues of (default mixing * dielectric matrix)
  average eigenvalue GAMMA=   1.5522
  3.3140  2.9918  1.5427  1.2294  1.0329  0.8278  0.8278  0.6512

 Free energy of the ion-electron system (eV)
  ---------------------------------------------------
  alpha Z        PSCENC =        12.91687988
  Ewald energy   TEWEN  =     23263.60588892
  -Hartree energ DENC   =    -29146.88651814
  -exchange      EXHF   =         0.00000000
  -V(xc)+E(xc)   XCENC  =       424.07209199
  PAW double counting   =     81182.07534287   -81008.91896432
  entropy T*S    EENTRO =        -0.00000000
  eigenvalues    EBANDS =     -2697.63471381
  atomic energy  EATOM  =      7593.39991119
  ---------------------------------------------------
  free energy    TOTEN  =      -377.37008143 eV

  energy without entropy =     -377.37008143  energy(sigma->0) =     -377.37008143


--------------------------------------------------------------------------------------------------------




----------------------------------------- Iteration    1(  14)  ---------------------------------------


    POTLOK:  cpu time    4.59: real time    4.61
    SETDIJ:  cpu time    2.80: real time    2.80
     EDDAV:  cpu time   15.27: real time   16.54
       DOS:  cpu time    0.04: real time    0.04
    CHARGE:  cpu time    5.24: real time    5.25
    MIXING:  cpu time    0.09: real time    0.09
    --------------------------------------------
      LOOP:  cpu time   28.03: real time   29.33

 eigenvalue-minimisations  :   768
 total energy-change (2. order) : 0.6363968E-02  (-0.1194451E-02)
 number of electron     166.0000000 magnetization      -0.0000000
 augmentation part        5.2588227 magnetization       0.0000083

 Broyden mixing:
  rms(total) = 0.28834E-01    rms(broyden)= 0.28832E-01
  rms(prec ) = 0.44189E-01
  weight for this iteration     100.00

 eigenvalues of (default mixing * dielectric matrix)
  average eigenvalue GAMMA=   1.6451
  4.5087  2.5803  2.0570  1.3778  1.0045  1.0045  0.8221  0.8221  0.6286

 Free energy of the ion-electron system (eV)
  ---------------------------------------------------
  alpha Z        PSCENC =        12.91687988
  Ewald energy   TEWEN  =     23263.60588892
  -Hartree energ DENC   =    -29138.91867286
  -exchange      EXHF   =         0.00000000
  -V(xc)+E(xc)   XCENC  =       424.27944177
  PAW double counting   =     80979.75284796   -80806.64990247
  entropy T*S    EENTRO =        -0.00000000
  eigenvalues    EBANDS =     -2705.75011186
  atomic energy  EATOM  =      7593.39991119
  ---------------------------------------------------
  free energy    TOTEN  =      -377.36371746 eV

  energy without entropy =     -377.36371746  energy(sigma->0) =     -377.36371746


--------------------------------------------------------------------------------------------------------




----------------------------------------- Iteration    1(  15)  ---------------------------------------


    POTLOK:  cpu time    4.60: real time    4.61
    SETDIJ:  cpu time    2.79: real time    2.79
     EDDAV:  cpu time   15.12: real time   16.43
       DOS:  cpu time    0.04: real time    0.04
    CHARGE:  cpu time    5.11: real time    5.12
    MIXING:  cpu time    0.24: real time    0.24
    --------------------------------------------
      LOOP:  cpu time   27.90: real time   29.25

 eigenvalue-minimisations  :   768
 total energy-change (2. order) :-0.2727430E-02  (-0.5174082E-03)
 number of electron     166.0000000 magnetization      -0.0000000
 augmentation part        5.2552362 magnetization      -0.0000016

 Broyden mixing:
  rms(total) = 0.21213E-01    rms(broyden)= 0.21213E-01
  rms(prec ) = 0.30174E-01
  weight for this iteration     100.00

 eigenvalues of (default mixing * dielectric matrix)
  average eigenvalue GAMMA=   1.7679
  5.2735  2.5725  2.5725  1.7340  0.8286  0.8286  1.1564  1.1564  0.9306  0.6263

 Free energy of the ion-electron system (eV)
  ---------------------------------------------------
  alpha Z        PSCENC =        12.91687988
  Ewald energy   TEWEN  =     23263.60588892
  -Hartree energ DENC   =    -29130.40899806
  -exchange      EXHF   =         0.00000000
  -V(xc)+E(xc)   XCENC  =       424.41035038
  PAW double counting   =     81056.30021672   -80883.18880345
  entropy T*S    EENTRO =        -0.00000000
  eigenvalues    EBANDS =     -2714.40189047
  atomic energy  EATOM  =      7593.39991119
  ---------------------------------------------------
  free energy    TOTEN  =      -377.36644489 eV

  energy without entropy =     -377.36644489  energy(sigma->0) =     -377.36644489


--------------------------------------------------------------------------------------------------------




----------------------------------------- Iteration    1(  16)  ---------------------------------------


    POTLOK:  cpu time    4.60: real time    4.62
    SETDIJ:  cpu time    2.80: real time    2.80
     EDDAV:  cpu time   15.28: real time   16.55
       DOS:  cpu time    0.05: real time    0.05
    CHARGE:  cpu time    5.27: real time    5.27
    MIXING:  cpu time    0.13: real time    0.15
    --------------------------------------------
      LOOP:  cpu time   28.14: real time   29.45

 eigenvalue-minimisations  :   768
 total energy-change (2. order) :-0.1088074E-01  (-0.2909643E-03)
 number of electron     166.0000000 magnetization      -0.0000000
 augmentation part        5.2587879 magnetization       0.0000024

 Broyden mixing:
  rms(total) = 0.96956E-02    rms(broyden)= 0.96950E-02
  rms(prec ) = 0.14936E-01
  weight for this iteration     100.00

 eigenvalues of (default mixing * dielectric matrix)
  average eigenvalue GAMMA=   1.8225
  6.1492  2.7572  2.7572  1.8467  1.3913  0.8277  0.8277  1.0140  1.0140  0.8380
  0.6248

 Free energy of the ion-electron system (eV)
  ---------------------------------------------------
  alpha Z        PSCENC =        12.91687988
  Ewald energy   TEWEN  =     23263.60588892
  -Hartree energ DENC   =    -29119.95327583
  -exchange      EXHF   =         0.00000000
  -V(xc)+E(xc)   XCENC  =       424.36456519
  PAW double counting   =     81152.91251874   -80979.78263885
  entropy T*S    EENTRO =        -0.00000000
  eigenvalues    EBANDS =     -2724.84117489
  atomic energy  EATOM  =      7593.39991119
  ---------------------------------------------------
  free energy    TOTEN  =      -377.37732563 eV

  energy without entropy =     -377.37732563  energy(sigma->0) =     -377.37732563


--------------------------------------------------------------------------------------------------------




----------------------------------------- Iteration    1(  17)  ---------------------------------------


    POTLOK:  cpu time    4.61: real time    4.63
    SETDIJ:  cpu time    2.79: real time    2.79
     EDDAV:  cpu time   15.14: real time   16.45
       DOS:  cpu time    0.05: real time    0.05
    CHARGE:  cpu time    5.19: real time    5.19
    MIXING:  cpu time    0.13: real time    0.13
    --------------------------------------------
      LOOP:  cpu time   27.90: real time   29.24

 eigenvalue-minimisations  :   768
 total energy-change (2. order) :-0.5885765E-02  (-0.9191583E-04)
 number of electron     166.0000000 magnetization      -0.0000000
 augmentation part        5.2601971 magnetization      -0.0000027

 Broyden mixing:
  rms(total) = 0.71995E-02    rms(broyden)= 0.71993E-02
  rms(prec ) = 0.10035E-01
  weight for this iteration     100.00

 eigenvalues of (default mixing * dielectric matrix)
  average eigenvalue GAMMA=   1.8519
  6.6373  2.8679  2.8679  1.8126  1.8126  0.8274  0.8274  1.0606  1.0606  0.9113
  0.9113  0.6255

 Free energy of the ion-electron system (eV)
  ---------------------------------------------------
  alpha Z        PSCENC =        12.91687988
  Ewald energy   TEWEN  =     23263.60588892
  -Hartree energ DENC   =    -29114.52176212
  -exchange      EXHF   =         0.00000000
  -V(xc)+E(xc)   XCENC  =       424.32644818
  PAW double counting   =     81182.07841578   -81008.94168448
  entropy T*S    EENTRO =        -0.00000000
  eigenvalues    EBANDS =     -2730.24730874
  atomic energy  EATOM  =      7593.39991119
  ---------------------------------------------------
  free energy    TOTEN  =      -377.38321139 eV

  energy without entropy =     -377.38321139  energy(sigma->0) =     -377.38321139


--------------------------------------------------------------------------------------------------------




----------------------------------------- Iteration    1(  18)  ---------------------------------------


    POTLOK:  cpu time    4.50: real time    4.77
    SETDIJ:  cpu time    2.79: real time    2.79
     EDDAV:  cpu time   15.21: real time   16.54
       DOS:  cpu time    0.05: real time    0.05
    CHARGE:  cpu time    5.10: real time    5.10
    MIXING:  cpu time    0.26: real time    0.26
    --------------------------------------------
      LOOP:  cpu time   27.92: real time   29.51

 eigenvalue-minimisations  :   768
 total energy-change (2. order) :-0.5473760E-02  (-0.4596438E-04)
 number of electron     166.0000000 magnetization      -0.0000000
 augmentation part        5.2596821 magnetization       0.0000042

 Broyden mixing:
  rms(total) = 0.44899E-02    rms(broyden)= 0.44897E-02
  rms(prec ) = 0.60650E-02
  weight for this iteration     100.00

 eigenvalues of (default mixing * dielectric matrix)
[...]
 12.561   0.000  21.156   0.000  -0.001   0.000   0.000   0.000  -0.005   0.000  -0.002   0.000   0.000   0.000  -0.008   0.000
 21.156   0.000  35.633   0.000  -0.002   0.000   0.000   0.000  -0.008   0.000  -0.004   0.000   0.000   0.000  -0.014   0.000
 -0.001   0.000  -0.002   0.000  -3.540   0.000   0.001   0.000  -0.000   0.000  -6.363   0.000   0.001   0.000  -0.000   0.000
  0.000   0.000   0.000   0.000   0.001   0.000  -3.540   0.000  -0.000   0.000   0.001   0.000  -6.363   0.000  -0.000   0.000
 -0.005   0.000  -0.008   0.000  -0.000   0.000  -0.000   0.000  -3.541   0.000  -0.000   0.000  -0.000   0.000  -6.363   0.000
 -0.002   0.000  -0.004   0.000  -6.363   0.000   0.001   0.000  -0.000   0.000 -11.413   0.000   0.002   0.000  -0.000   0.000
  0.000   0.000   0.000   0.000   0.001   0.000  -6.363   0.000  -0.000   0.000   0.002   0.000 -11.413   0.000  -0.000   0.000
 -0.008   0.000  -0.014   0.000  -0.000   0.000  -0.000   0.000  -6.363   0.000  -0.000   0.000  -0.000   0.000 -11.414   0.000
 pseudopotential strength for first ion, spin component:           2
 12.561   0.000  21.156   0.000  -0.001   0.000   0.000   0.000  -0.005   0.000  -0.002   0.000   0.000   0.000  -0.008   0.000
 21.156   0.000  35.633   0.000  -0.002   0.000   0.000   0.000  -0.008   0.000  -0.004   0.000   0.000   0.000  -0.014   0.000
 -0.001   0.000  -0.002   0.000  -3.540   0.000   0.001   0.000  -0.000   0.000  -6.363   0.000   0.001   0.000  -0.000   0.000
  0.000   0.000   0.000   0.000   0.001   0.000  -3.540   0.000  -0.000   0.000   0.001   0.000  -6.363   0.000  -0.000   0.000
 -0.005   0.000  -0.008   0.000  -0.000   0.000  -0.000   0.000  -3.541   0.000  -0.000   0.000  -0.000   0.000  -6.363   0.000
 -0.002   0.000  -0.004   0.000  -6.363   0.000   0.001   0.000  -0.000   0.000 -11.413   0.000   0.002   0.000  -0.000   0.000
  0.000   0.000   0.000   0.000   0.001   0.000  -6.363   0.000  -0.000   0.000   0.002   0.000 -11.413   0.000  -0.000   0.000
 -0.008   0.000  -0.014   0.000  -0.000   0.000  -0.000   0.000  -6.363   0.000  -0.000   0.000  -0.000   0.000 -11.414   0.000
 total augmentation occupancy for first ion, spin component:           1
  1.015  -0.075  -0.109  -0.027  -0.547   0.035   0.013   0.200
 -0.075   0.368   0.047   0.013   0.243  -0.009  -0.007  -0.067
 -0.109   0.047   2.042  -1.191   0.207  -0.259   0.355  -0.053
 -0.027   0.013  -1.191   1.893   0.246   0.355  -0.216  -0.069
 -0.547   0.243   0.207   0.246   2.639  -0.053  -0.068  -0.383
  0.035  -0.009  -0.259   0.355  -0.053   0.122  -0.046  -0.000
  0.013  -0.007   0.355  -0.216  -0.068  -0.046   0.117   0.006
  0.200  -0.067  -0.053  -0.069  -0.383  -0.000   0.006   0.098
 total augmentation occupancy for first ion, spin component:           2
  0.000  -0.000  -0.000   0.000  -0.000   0.000  -0.000   0.000
 -0.000   0.000   0.000   0.000   0.000  -0.000  -0.000  -0.000
 -0.000   0.000   0.000   0.000  -0.000  -0.000   0.000  -0.000
  0.000   0.000   0.000   0.000  -0.000   0.000  -0.000  -0.000
 -0.000   0.000  -0.000  -0.000   0.000  -0.000  -0.000  -0.000
  0.000  -0.000  -0.000   0.000  -0.000  -0.000  -0.000   0.000
 -0.000  -0.000   0.000  -0.000  -0.000  -0.000  -0.000   0.000
  0.000  -0.000  -0.000  -0.000  -0.000   0.000   0.000   0.000


------------------------ aborting loop because EDIFF is reached ----------------------------------------


    CHARGE:  cpu time    5.35: real time    5.37
    FORLOC:  cpu time    0.54: real time    0.54
    FORNL :  cpu time   19.55: real time   19.58
    STRESS:  cpu time   61.22: real time   61.30
    FORCOR:  cpu time    4.20: real time    4.22
    FORHAR:  cpu time    0.99: real time    0.99
    MIXING:  cpu time    0.20: real time    0.20
    OFIELD:  cpu time    0.00: real time    0.00

  FORCE on cell =-STRESS in cart. coord.  units (eV):
  Direction    XX          YY          ZZ          XY          YZ          ZX
  --------------------------------------------------------------------------------------
  Alpha Z    12.91688    12.91688    12.91688
  Ewald   11235.27447  5556.37038  6471.94660   398.92382 -1586.77734   906.20203
  Hartree 12567.96585  7783.32453  8755.19632   107.71031 -1444.29456   724.33332
  E(xc)    -688.89504  -691.43761  -692.10057     1.42506    -0.20684     0.67619
  Local  -26172.94435-15744.92283-17652.94672  -483.70514  3028.20451 -1630.25577
  n-local   -28.63509   -28.57693   -32.00882     3.41458    -1.40832    -0.99218
  augment    82.50609    84.42871    83.36831     1.27816    -0.69408     0.45337
  Kinetic  2975.61370  3013.80492  3039.55298   -29.70953     6.30231    -0.51389
  Fock        0.00000     0.00000     0.00000     0.00000     0.00000     0.00000
  -------------------------------------------------------------------------------------
  Total     -16.19750   -14.09195   -14.07502    -0.66276     1.12568    -0.09692
  in kB      -3.24391    -2.82223    -2.81884    -0.13273     0.22544    -0.01941
  external pressure =       -2.96 kB  Pullay stress =        0.00 kB


 VOLUME and BASIS-vectors are now :
 -----------------------------------------------------------------------------
  energy-cutoff  :      700.00
  volume of cell :     8000.00
      direct lattice vectors                 reciprocal lattice vectors
    20.000000000  0.000000000  0.000000000     0.050000000  0.000000000  0.000000000
     0.000000000 20.000000000  0.000000000     0.000000000  0.050000000  0.000000000
     0.000000000  0.000000000 20.000000000     0.000000000  0.000000000  0.050000000

  length of vectors
    20.000000000 20.000000000 20.000000000     0.050000000  0.050000000  0.050000000


 FORCES acting on ions
    electron-ion (+dipol)            ewald-force                    non-local-force                 convergence-correction
 -----------------------------------------------------------------------------------------------
   -.379E+03 -.782E+02 -.929E+00   0.382E+03 0.790E+02 0.914E+00   -.303E+01 -.834E+00 0.656E-01   0.201E-05 0.145E-04 -.779E-05
   0.881E+02 -.909E+01 0.333E+03   -.888E+02 0.934E+01 -.335E+03   0.668E+00 -.258E+00 0.183E+01   -.107E-04 -.311E-05 -.580E-04
   0.683E+02 0.804E+02 0.318E+03   -.705E+02 -.826E+02 -.324E+03   0.215E+01 0.210E+01 0.635E+01   -.655E-05 -.234E-04 0.230E-05
   0.430E+01 -.318E+03 0.298E+02   -.466E+01 0.324E+03 -.293E+02   0.368E+00 -.690E+01 -.459E+00   -.317E-05 -.165E-05 0.165E-04
   0.366E+02 -.325E+03 0.105E+03   -.370E+02 0.327E+03 -.106E+03   0.389E+00 -.176E+01 0.644E+00   0.223E-05 0.422E-04 -.120E-04
   0.806E+02 -.208E+03 0.263E+03   -.811E+02 0.209E+03 -.265E+03   0.555E+00 -.113E+01 0.142E+01   -.696E-05 0.502E-04 -.624E-04
   0.750E+02 0.267E+03 -.218E+03   -.756E+02 -.269E+03 0.220E+03   0.644E+00 0.153E+01 -.143E+01   0.747E-05 -.435E-04 0.329E-04
   0.151E+03 0.255E+03 -.164E+03   -.155E+03 -.260E+03 0.168E+03   0.435E+01 0.475E+01 -.378E+01   -.363E-05 -.981E-06 0.433E-05
   -.225E+03 0.123E+03 -.137E+03   0.230E+03 -.125E+03 0.140E+03   -.448E+01 0.185E+01 -.326E+01   -.927E-05 -.178E-04 0.665E-05
   -.257E+03 0.144E+03 -.182E+03   0.258E+03 -.145E+03 0.183E+03   -.853E+00 0.150E+01 -.182E+01   0.346E-04 -.404E-04 0.287E-04
   0.322E+03 -.348E+02 -.117E+03   -.325E+03 0.346E+02 0.117E+03   0.240E+01 0.227E+00 -.288E+00   -.224E-04 -.930E-05 0.167E-04
   -.252E+03 -.198E+03 0.144E+03   0.251E+03 0.201E+03 -.147E+03   0.157E+01 -.390E+01 0.398E+01   0.693E-04 0.892E-05 0.856E-05
   -.178E+03 -.215E+03 0.188E+03   0.180E+03 0.220E+03 -.193E+03   -.177E+01 -.511E+01 0.440E+01   0.630E-04 -.618E-05 0.806E-05
   -.262E+03 0.653E+02 -.931E+02   0.266E+03 -.680E+02 0.964E+02   -.320E+01 0.254E+01 -.318E+01   0.508E-04 0.247E-04 -.233E-04
   -.310E+03 0.686E+02 -.118E+03   0.310E+03 -.714E+02 0.121E+03   0.222E+00 0.359E+01 -.333E+01   0.566E-04 0.265E-04 -.177E-04
   -.122E+03 0.232E+03 -.238E+03   0.122E+03 -.234E+03 0.240E+03   -.465E+00 0.155E+01 -.170E+01   0.215E-04 -.575E-04 0.414E-04
   0.271E+03 -.292E+02 -.104E+03   -.276E+03 0.310E+02 0.106E+03   0.516E+01 -.185E+01 -.277E+01   0.771E-05 -.155E-04 -.240E-04
   0.127E+03 -.218E+03 -.261E+03   -.128E+03 0.219E+03 0.262E+03   0.742E+00 -.130E+01 -.159E+01   -.243E-04 0.512E-04 0.509E-04
   -.739E+02 -.256E+03 -.246E+03   0.742E+02 0.257E+03 0.248E+03   -.217E+00 -.147E+01 -.157E+01   -.157E-04 0.200E-04 0.181E-04
   -.157E+03 -.237E+03 -.197E+03   0.161E+03 0.241E+03 0.201E+03   -.373E+01 -.484E+01 -.430E+01   -.184E-04 -.261E-04 -.128E-04
   0.233E+03 -.959E+02 -.158E+03   -.238E+03 0.968E+02 0.161E+03   0.582E+01 -.939E+00 -.273E+01   0.367E-04 0.707E-05 -.891E-05
   0.265E+03 -.124E+03 -.200E+03   -.266E+03 0.125E+03 0.202E+03   0.129E+01 -.126E+01 -.181E+01   -.219E-04 0.364E-04 0.327E-04
   0.147E+03 0.264E+03 0.192E+03   -.151E+03 -.269E+03 -.196E+03   0.349E+01 0.498E+01 0.412E+01   -.517E-05 0.269E-05 0.220E-06
   0.241E+03 0.223E+03 0.143E+03   -.243E+03 -.224E+03 -.144E+03   0.163E+01 0.119E+01 0.818E+00   -.366E-04 -.377E-04 -.253E-04
   0.337E+03 0.956E+02 0.313E+01   -.339E+03 -.962E+02 -.329E+01   0.191E+01 0.531E+00 0.146E+00   -.334E-04 -.386E-04 0.616E-05
   0.452E+02 0.805E+02 -.636E+02   -.489E+02 -.843E+02 0.665E+02   0.364E+01 0.382E+01 -.290E+01   -.630E-06 -.166E-04 0.117E-04
   -.417E+02 0.695E+02 -.757E+02   0.441E+02 -.731E+02 0.798E+02   -.242E+01 0.362E+01 -.419E+01   0.553E-05 -.172E-04 0.120E-04
   -.991E+02 0.280E+02 -.487E+02   0.105E+03 -.278E+02 0.500E+02   -.580E+01 -.232E+00 -.126E+01   0.923E-05 -.912E-05 0.516E-05
   -.405E+02 0.149E+03 0.159E+02   0.423E+02 -.157E+03 -.126E+02   -.178E+01 0.757E+01 -.335E+01   -.176E-05 0.467E-05 0.213E-05
   0.101E+03 -.225E+02 -.517E+02   -.107E+03 0.221E+02 0.529E+02   0.582E+01 0.410E+00 -.121E+01   -.152E-04 0.713E-05 0.112E-04
   0.801E+02 0.679E+02 -.317E+02   -.859E+02 -.680E+02 0.303E+02   0.589E+01 0.134E+00 0.134E+01   -.190E-05 -.187E-05 0.111E-05
   0.267E+02 -.663E+02 0.814E+02   -.282E+02 0.701E+02 -.858E+02   0.154E+01 -.371E+01 0.448E+01   -.475E-05 0.219E-04 -.281E-04
   0.599E+01 -.110E+03 0.888E+01   -.596E+01 0.116E+03 -.780E+01   -.303E-01 -.588E+01 -.107E+01   -.383E-06 0.255E-04 -.622E-05
   -.140E+02 -.101E+03 -.344E+02   0.155E+02 0.103E+03 0.398E+02   -.153E+01 -.210E+01 -.538E+01   -.152E-05 0.154E-06 0.669E-05
   -.101E+03 0.259E+02 0.116E+03   0.108E+03 -.237E+02 -.121E+03   -.650E+01 -.228E+01 0.485E+01   -.283E-05 0.173E-05 0.552E-05
   -.913E+02 0.396E+02 -.545E+02   0.947E+02 -.429E+02 0.583E+02   -.328E+01 0.335E+01 -.386E+01   -.990E-06 0.591E-05 -.863E-05
   -.657E+02 -.724E+02 0.557E+02   0.682E+02 0.767E+02 -.592E+02   -.241E+01 -.435E+01 0.354E+01   0.574E-05 -.498E-05 0.532E-05
   0.175E+02 0.710E+02 0.884E+02   -.176E+02 -.770E+02 -.892E+02   0.528E-01 0.596E+01 0.729E+00   -.192E-05 -.132E-04 -.273E-05
   0.420E+01 0.904E+02 0.773E+02   -.629E+00 -.934E+02 -.811E+02   -.358E+01 0.301E+01 0.375E+01   -.336E-05 -.581E-05 -.478E-05
   0.603E+02 0.771E+02 0.571E+02   -.625E+02 -.813E+02 -.607E+02   0.229E+01 0.426E+01 0.356E+01   -.120E-04 -.133E-04 -.838E-05
   -.112E+03 -.207E+02 -.506E+01   0.117E+03 0.216E+02 0.546E+01   -.620E+01 -.991E+00 -.489E+00   -.492E-05 0.338E-05 -.398E-05
   -.833E+02 -.640E+02 -.382E+02   0.892E+02 0.643E+02 0.370E+02   -.585E+01 -.259E+00 0.128E+01   -.786E-05 -.341E-05 0.193E-05
   0.286E+02 0.212E+02 0.104E+03   -.302E+02 -.236E+02 -.109E+03   0.153E+01 0.241E+01 0.526E+01   -.549E-05 -.332E-05 -.288E-04
   -.452E+02 -.784E+02 -.699E+02   0.488E+02 0.821E+02 0.730E+02   -.357E+01 -.373E+01 -.304E+01   -.130E-05 0.150E-04 0.140E-04
   0.946E+02 -.331E+02 -.543E+02   -.980E+02 0.362E+02 0.580E+02   0.345E+01 -.311E+01 -.372E+01   -.951E-05 0.662E-06 0.951E-05
   0.105E+03 0.253E+02 -.238E+01   -.111E+03 -.263E+02 0.269E+01   0.591E+01 0.108E+01 -.304E+00   -.162E-04 -.131E-04 0.249E-05
   -.223E+02 -.760E+02 0.741E+02   0.189E+02 0.792E+02 -.779E+02   0.352E+01 -.319E+01 0.381E+01   0.920E-05 0.250E-05 -.396E-05
   0.432E+02 -.658E+02 -.805E+02   -.457E+02 0.692E+02 0.848E+02   0.248E+01 -.342E+01 -.430E+01   -.767E-05 0.151E-04 0.164E-04
   0.316E+02 -.139E+03 0.222E+03   -.269E+02 0.127E+03 -.207E+03   -.474E+01 0.122E+02 -.148E+02   -.316E-05 -.111E-04 0.351E-04
   0.232E+03 0.163E+03 0.619E+02   -.213E+03 -.160E+03 -.634E+02   -.190E+02 -.311E+01 0.146E+01   -.953E-05 0.707E-06 0.324E-05
   -.403E+02 0.234E+03 -.160E+03   0.310E+02 -.222E+03 0.146E+03   0.922E+01 -.117E+02 0.135E+02   -.226E-04 -.241E-05 -.967E-06
   0.393E+02 -.196E+03 -.197E+03   -.320E+02 0.187E+03 0.185E+03   -.735E+01 0.915E+01 0.122E+02   0.289E-04 0.174E-04 0.203E-04
   -.250E+03 -.951E+02 0.679E+02   0.227E+03 0.922E+02 -.697E+02   0.223E+02 0.283E+01 0.183E+01   -.443E-06 -.113E-04 -.112E-04
   -.122E+03 0.404E+03 0.422E+03   0.820E+02 -.387E+03 -.425E+03   0.398E+02 -.170E+02 0.263E+01   0.551E-05 0.144E-04 0.151E-04
   -.706E+02 0.131E+03 0.229E+03   0.690E+02 -.128E+03 -.225E+03   0.206E+01 -.308E+01 -.397E+01   0.268E-04 -.258E-04 0.461E-04
 -----------------------------------------------------------------------------------------------
   -.509E+02 0.136E+02 -.134E+00   -.412E-12 0.426E-12 -.313E-12   0.510E+02 -.136E+02 0.137E+00   0.886E-04 -.535E-04 0.139E-03
 
 
 POSITION                                       TOTAL-FORCE (eV/Angst)
 -----------------------------------------------------------------------------------
     14.79299     10.57118     10.69264        -0.199485     -0.104900      0.050890
      8.75875     11.31222      6.55140        -0.004766     -0.007436     -0.003723
      9.11624     10.48468      7.61029        -0.000800     -0.035372      0.003924
      9.47459     12.30603      8.99730         0.013936      0.009630      0.014544
      9.11904     13.19266      7.98704         0.010271      0.014182      0.010309
      8.75715     12.69444      6.73519        -0.001417     -0.003450      0.001464
     10.46158      6.59100     13.49490         0.052771     -0.008850      0.020688
      9.94203      7.43809     12.52376         0.006258      0.059315     -0.059286
     12.04547      8.38666     12.11872         0.046434     -0.061654      0.070721
     12.61928      7.55238     13.08448         0.035848      0.040060     -0.025485
      5.86694      9.53439     11.36602         0.012221      0.004841      0.002345
     14.01643     11.32257      9.80881         0.395580     -0.489544      0.548616
     12.65158     11.07272      9.73048         0.162152      0.026952      0.008422
     12.79043      9.38554     11.34657         0.009752     -0.099957      0.102035
     14.16878      9.59490     11.46294         0.423213      0.720995     -0.577710
     11.82695      6.64488     13.78060        -0.001642     -0.027899      0.028070
      7.24231      9.77330     11.28348         0.026244      0.005943     -0.007861
      8.15819     12.44233     13.81164         0.017035     -0.005907     -0.013961
      9.52399     12.52132     13.53212         0.007444      0.007356      0.006417
     10.05904     11.71816     12.53361        -0.021223     -0.028129     -0.028743
      7.96508     10.76003     12.08522         0.017587     -0.012209     -0.017235
      7.38092     11.55121     13.07965         0.004045     -0.001229     -0.006925
      7.45796      8.11597      9.64469         0.080606      0.001796     -0.016321
      6.09730      7.83470      9.68863        -0.021187      0.005668      0.013194
      5.28440      8.55710     10.56432         0.027055     -0.009060     -0.015410
      9.79795      5.90212     14.01497         0.000212     -0.008026      0.007037
     12.26685      5.99367     14.53463         0.003735     -0.001465      0.003160
     13.68484      7.61538     13.29576         0.010798     -0.031693      0.035777
     10.84507      7.24677      9.22597        -0.014365     -0.041909     -0.023314
      6.31582     11.46138     13.28407         0.001552      0.004425     -0.001566
      8.88327      7.42377     12.27295         0.001501     -0.001833     -0.000923
      8.47853     13.36665      5.92453        -0.003954      0.005575     -0.001253
      9.12855     14.26265      8.19005         0.001237      0.002174      0.001160
      9.76183     12.67176      9.98145        -0.010294      0.017381      0.008278
     11.38256      8.36174      8.29610        -0.048585     -0.028070     -0.055235
     14.75349      8.99278     12.15530         0.123206      0.103747     -0.068944
     14.45552     12.09620      9.18096         0.155502     -0.055201      0.084724
      9.11405      9.40258      7.49376        -0.013728     -0.002981     -0.014807
      8.12287      7.57771      8.97051        -0.009423     -0.011124     -0.009245
      5.68876      7.06123      9.04041         0.005505     -0.006196     -0.002121
     15.86530     10.74076     10.77851        -1.160708     -0.178560     -0.094128
     11.11794     11.75383     12.28812        -0.002974      0.019495      0.018543
      8.48240     10.86572      5.59722        -0.005821     -0.001622      0.003776
     10.17895     13.19691     14.08003        -0.000098      0.003470      0.000820
      5.25320     10.11370     12.05309         0.002568     -0.001879     -0.001266
      4.21445      8.36275     10.62101        -0.003386     -0.002512     -0.001824
     12.01813     11.63958      9.05085         0.072828      0.030373     -0.009554
      7.70887     13.05934     14.58823        -0.000537      0.006751      0.006128
      9.48490     10.95884      8.82805        -0.014249      0.037868     -0.031532
      8.03610      9.06122     10.42169        -0.122711     -0.009885      0.023081
     10.70414      8.32170     11.83465        -0.018274      0.022417     -0.007923
      9.30896     10.85100     11.80824        -0.099551      0.095512      0.116803
     12.02768     10.13012     10.47953        -0.414387     -0.012417     -0.054017
     10.61480      8.11252      8.84309         0.004367      0.044406      0.060262
     10.01771      9.61740     10.38685         0.462104      0.000636     -0.100873
 -----------------------------------------------------------------------------------
    total drift:                                0.006201     -0.003614      0.002748


--------------------------------------------------------------------------------------------------------



  FREE ENERGIE OF THE ION-ELECTRON SYSTEM (eV)
  ---------------------------------------------------
  free  energy   TOTEN  =      -377.39710322 eV

  energy  without entropy=     -377.39710322  energy(sigma->0) =     -377.39710322
 


--------------------------------------------------------------------------------------------------------


    POTLOK:  cpu time    7.45: real time    7.48


--------------------------------------------------------------------------------------------------------


 writing wavefunctions
     LOOP+:  cpu time 1011.51: real time 1049.72
    4ORBIT:  cpu time    0.00: real time    0.00

 total amount of memory used by VASP on root node   877132. kBytes
========================================================================

   base      :      30000. kBytes
   nonlr-proj:      19361. kBytes
   fftplans  :     269516. kBytes
   grid      :     534988. kBytes
   one-center:       1710. kBytes
   wavefun   :      21557. kBytes
 
  
  
 General timing and accounting informations for this job:
 ========================================================
  
                  Total CPU time used (sec):     1267.155
                            User time (sec):     1117.767
                          System time (sec):      149.388
                         Elapsed time (sec):     1309.189
  
                   Maximum memory used (kb):     1490168.
                   Average memory used (kb):           0.
  
                          Minor page faults:      6844448
                          Major page faults:            1
                 Voluntary context switches:       278419
