<?xml version="1.0" encoding="ISO-8859-1"?>
<modeling>
 <generator>
  <i name="program" type="string">vasp </i>
  <i name="version" type="string">5.3.5  </i>
  <i name="subversion" type="string">31Mar14 (build Apr 08 2014 12:00:03) complex                          parallel </i>
  <i name="platform" type="string">NSC-NSCPATCH-BUILD02 </i>
  <i name="date" type="string">2017 03 15 </i>
  <i name="time" type="string">18:40:23 </i>
 </generator>
 <incar>
  <i type="string" name="SYSTEM"> c2_oh2_ruthenium_mol</i>
  <i type="int" name="ISTART">     0</i>
  <i type="string" name="PREC">accurate</i>
  <i type="int" name="IALGO">    38</i>
  <i type="logical" name="ADDGRID"> T  </i>
  <i type="int" name="ISPIN">     2</i>
  <i name="BMIX">      2.00000000</i>
  <i type="int" name="ICHARG">     2</i>
  <i name="EDIFF">      0.00001000</i>
  <i name="EDIFFG">     -0.01000000</i>
  <i name="ENCUT">    700.00000000</i>
  <i name="POTIM">      0.50000000</i>
  <i name="NUPDOWN">      0.00000000</i>
  <i name="NELECT">    166.00000000</i>
  <i type="string" name="LREAL"> Auto</i>
  <i name="TIME">      0.05000000</i>
  <i type="int" name="ISMEAR">     0</i>
  <i name="SIGMA">      0.01000000</i>
  <i type="int" name="ICORELEVEL">     2</i>
  <i type="int" name="CLNT">     1</i>
  <i type="int" name="CLN">     1</i>
  <i type="int" name="INCAR     ">     0</i>
  <i name="CLZ">      0.50000000</i>
 </incar>
 <kpoints>
  <generation param="Monkhorst-Pack">
   <v type="int" name="divisions">       1        1        1 </v>
   <v name="usershift">      0.00000000       0.00000000       0.00000000 </v>
   <v name="genvec1">      1.00000000       0.00000000       0.00000000 </v>
   <v name="genvec2">      0.00000000       1.00000000       0.00000000 </v>
   <v name="genvec3">      0.00000000       0.00000000       1.00000000 </v>
   <v name="shift">      0.00000000       0.00000000       0.00000000 </v>
  </generation>
  <varray name="kpointlist" >
   <v>       0.00000000       0.00000000       0.00000000 </v>
  </varray>
  <varray name="weights" >
   <v>       1.00000000 </v>
  </varray>
 </kpoints>
 <parameters>
  <separator name="general" >
   <i type="string" name="SYSTEM">c2_oh2_ruthenium_mol</i>
   <i type="logical" name="LCOMPAT"> F  </i>
  </separator>
  <separator name="electronic" >
   <i type="string" name="PREC">accura</i>
   <i name="ENMAX">    700.00000000</i>
   <i name="ENAUG">    946.76800000</i>
   <i name="EDIFF">      0.00001000</i>
   <i type="int" name="IALGO">    38</i>
   <i type="int" name="IWAVPR">    10</i>
   <i type="int" name="NBANDS">   128</i>
   <i name="NELECT">    166.00000000</i>
   <i type="int" name="TURBO">     0</i>
   <i type="int" name="IRESTART">     0</i>
   <i type="int" name="NREBOOT">     0</i>
   <i type="int" name="NMIN">     0</i>
   <i name="EREF">      0.00000000</i>
   <separator name="electronic smearing" >
    <i type="int" name="ISMEAR">     0</i>
    <i name="SIGMA">      0.01000000</i>
    <i name="KSPACING">      0.50000000</i>
    <i type="logical" name="KGAMMA"> T  </i>
   </separator>
   <separator name="electronic projectors" >
    <i type="logical" name="LREAL"> T  </i>
    <v name="ROPT">     -0.00025000     -0.00025000     -0.00025000     -0.00025000     -0.00025000     -0.00025000</v>
    <i type="int" name="LMAXPAW">  -100</i>
    <i type="int" name="LMAXMIX">     2</i>
    <i type="logical" name="NLSPLINE"> F  </i>
   </separator>
   <separator name="electronic startup" >
    <i type="int" name="ISTART">     0</i>
    <i type="int" name="ICHARG">     2</i>
    <i type="int" name="INIWAV">     1</i>
   </separator>
   <separator name="electronic spin" >
    <i type="int" name="ISPIN">     2</i>
    <i type="logical" name="LNONCOLLINEAR"> F  </i>
    <v name="MAGMOM">      0.00000000      0.00000000      0.00000000      0.00000000      0.00000000      0.00000000      0.00000000      0.00000000      0.00000000      0.00000000      0.00000000      0.00000000      0.00000000      0.00000000      0.00000000      0.00000000      0.00000000      0.00000000      0.00000000      0.00000000
      0.00000000      0.00000000      0.00000000      0.00000000      0.00000000      0.00000000      0.00000000      0.00000000      0.00000000      0.00000000      0.00000000      0.00000000      0.00000000      0.00000000      0.00000000      0.00000000      0.00000000      0.00000000      0.00000000      0.00000000
      0.00000000      0.00000000      0.00000000      0.00000000      0.00000000      0.00000000      0.00000000      0.00000000      0.00000000      0.00000000      0.00000000      0.00000000      0.00000000      0.00000000      0.00000000</v>
    <i name="NUPDOWN">      0.00000000</i>
    <i type="logical" name="LSORBIT"> F  </i>
    <v name="SAXIS">      0.00000000      0.00000000      1.00000000</v>
    <i type="logical" name="LSPIRAL"> F  </i>
    <v name="QSPIRAL">      0.00000000      0.00000000      0.00000000</v>
    <i type="logical" name="LZEROZ"> F  </i>
   </separator>
   <separator name="electronic exchange-correlation" >
    <i type="logical" name="LASPH"> F  </i>
    <i type="logical" name="LMETAGGA"> F  </i>
   </separator>
   <separator name="electronic convergence" >
    <i type="int" name="NELM">    60</i>
    <i type="int" name="NELMDL">    -5</i>
    <i type="int" name="NELMIN">     2</i>
    <i name="ENINI">    700.00000000</i>
    <separator name="electronic convergence detail" >
     <i type="logical" name="LDIAG"> T  </i>
     <i type="logical" name="LSUBROT"> F  </i>
     <i name="WEIMIN">      0.00000000</i>
     <i name="EBREAK">      0.00000002</i>
     <i name="DEPER">      0.30000000</i>
     <i type="int" name="NRMM">     4</i>
     <i name="TIME">      0.05000000</i>
    </separator>
   </separator>
   <separator name="electronic mixer" >
    <i name="AMIX">      0.40000000</i>
    <i name="BMIX">      2.00000000</i>
    <i name="AMIN">      0.10000000</i>
    <i name="AMIX_MAG">      1.60000000</i>
    <i name="BMIX_MAG">      2.00000000</i>
    <separator name="electronic mixer details" >
     <i type="int" name="IMIX">     4</i>
     <i type="int" name="MAXMIX">   -45</i>
     <i name="WC">    100.00000000</i>
     <i type="int" name="INIMIX">     1</i>
     <i type="int" name="MIXPRE">     1</i>
     <i type="int" name="MREMOVE">     5</i>
    </separator>
   </separator>
   <separator name="electronic dipolcorrection" >
    <i type="logical" name="LDIPOL"> F  </i>
    <i type="logical" name="LMONO"> F  </i>
    <i type="int" name="IDIPOL">     0</i>
    <i name="EPSILON">      1.00000000</i>
    <v name="DIPOL">   -100.00000000   -100.00000000   -100.00000000</v>
    <i name="EFIELD">      0.00000000</i>
   </separator>
  </separator>
  <separator name="grids" >
   <i type="int" name="NGX">   180</i>
   <i type="int" name="NGY">   180</i>
   <i type="int" name="NGZ">   180</i>
   <i type="int" name="NGXF">   360</i>
   <i type="int" name="NGYF">   360</i>
   <i type="int" name="NGZF">   360</i>
   <i type="logical" name="ADDGRID"> T  </i>
  </separator>
  <separator name="ionic" >
   <i type="int" name="NSW">     0</i>
   <i type="int" name="IBRION">    -1</i>
   <i type="int" name="ISIF">     2</i>
   <i name="PSTRESS">      0.00000000</i>
   <i name="EDIFFG">     -0.01000000</i>
   <i type="int" name="NFREE">     0</i>
   <i name="POTIM">      0.50000000</i>
   <i name="SMASS">     -3.00000000</i>
   <i name="SCALEE">      1.00000000</i>
  </separator>
  <separator name="ionic md" >
   <i name="TEBEG">      0.00010000</i>
   <i name="TEEND">      0.00010000</i>
   <i type="int" name="NBLOCK">     1</i>
   <i type="int" name="KBLOCK">     1</i>
   <i type="int" name="NPACO">   256</i>
   <i name="APACO">     16.00000000</i>
  </separator>
  <separator name="symmetry" >
   <i type="int" name="ISYM">     2</i>
   <i name="SYMPREC">      0.00001000</i>
  </separator>
  <separator name="dos" >
   <i type="logical" name="LORBIT"> F  </i>
   <v name="RWIGS">     -1.00000000     -1.00000000     -1.00000000     -1.00000000     -1.00000000     -1.00000000</v>
   <i type="int" name="NEDOS">   301</i>
   <i name="EMIN">     10.00000000</i>
   <i name="EMAX">    -10.00000000</i>
   <i name="EFERMI">      0.00000000</i>
  </separator>
  <separator name="writing" >
   <i type="int" name="NWRITE">     2</i>
   <i type="logical" name="LWAVE"> T  </i>
   <i type="logical" name="LCHARG"> T  </i>
   <i type="logical" name="LPARD"> F  </i>
   <i type="logical" name="LVTOT"> F  </i>
   <i type="logical" name="LVHAR"> F  </i>
   <i type="logical" name="LELF"> F  </i>
   <i type="logical" name="LOPTICS"> F  </i>
   <v name="STM">      0.00000000      0.00000000      0.00000000      0.00000000      0.00000000      0.00000000      0.00000000</v>
  </separator>
  <separator name="performance" >
   <i type="int" name="NPAR">    64</i>
   <i type="int" name="NSIM">     4</i>
   <i type="int" name="NBLK">    -1</i>
   <i type="logical" name="LPLANE"> T  </i>
   <i type="logical" name="LSCALAPACK"> T  </i>
   <i type="logical" name="LSCAAWARE"> F  </i>
   <i type="logical" name="LSCALU"> F  </i>
   <i type="logical" name="LASYNC"> F  </i>
   <i type="logical" name="LORBITALREAL"> F  </i>
  </separator>
  <separator name="miscellaneous" >
   <i type="int" name="IDIOT">     3</i>
   <i type="logical" name="LMUSIC"> F  </i>
   <v name="POMASS">     12.01100000     12.01100000      1.00000000     14.00100000     16.00000000    101.07000000</v>
   <v name="DARWINR">      0.00000000      0.00000000      0.00000000      0.00000000      0.00000000      0.00000000</v>
   <v name="DARWINV">      1.00000000      1.00000000      1.00000000      1.00000000      1.00000000      1.00000000</v>
   <i type="logical" name="LCORR"> T  </i>
  </separator>
  <i type="logical" name="GGA_COMPAT"> T  </i>
  <i type="logical" name="LBERRY"> F  </i>
  <i type="int" name="ICORELEVEL">     2</i>
  <i type="int" name="CLNT">     1</i>
  <i type="int" name="CLN">     1</i>
  <i type="int" name="CLL">     0</i>
  <i name="CLZ">      0.50000000</i>
  <i type="logical" name="LDAU"> F  </i>
  <i type="int" name="I_CONSTRAINED_M">     0</i>
  <separator name="electronic exchange-correlation" >
   <i type="string" name="GGA">--</i>
   <i type="int" name="VOSKOWN">     0</i>
   <i type="logical" name="LHFCALC"> F  </i>
   <i type="string" name="PRECFOCK"></i>
   <i type="logical" name="LSYMGRAD"> F  </i>
   <i type="logical" name="LHFONE"> F  </i>
   <i type="logical" name="LRHFCALC"> F  </i>
   <i type="logical" name="LTHOMAS"> F  </i>
   <i type="logical" name="LMODELHF"> F  </i>
   <i name="ENCUT4O">     -1.00000000</i>
   <i type="int" name="EXXOEP">     0</i>
   <i type="int" name="FOURORBIT">     0</i>
   <i name="AEXX">      0.00000000</i>
   <i name="HFALPHA">      0.00000000</i>
   <i name="MCALPHA">      0.00000000</i>
   <i name="ALDAX">      1.00000000</i>
   <i name="AGGAX">      1.00000000</i>
   <i name="ALDAC">      1.00000000</i>
   <i name="AGGAC">      1.00000000</i>
   <i type="int" name="NKREDX">     1</i>
   <i type="int" name="NKREDY">     1</i>
   <i type="int" name="NKREDZ">     1</i>
   <i type="logical" name="SHIFTRED"> F  </i>
   <i type="logical" name="ODDONLY"> F  </i>
   <i type="logical" name="EVENONLY"> F  </i>
   <i type="int" name="LMAXFOCK">     0</i>
   <i type="int" name="NMAXFOCKAE">     0</i>
   <i type="logical" name="LFOCKAEDFT"> F  </i>
   <i name="HFSCREEN">      0.00000000</i>
   <i name="HFSCREENC">      0.00000000</i>
   <i type="int" name="NBANDSGWLOW">     0</i>
  </separator>
  <separator name="vdW DFT" >
   <i type="logical" name="LUSE_VDW"> F  </i>
   <i name="Zab_VDW">     -0.84910000</i>
   <i name="PARAM1">      0.12340000</i>
   <i name="PARAM2">      1.00000000</i>
   <i name="PARAM3">      0.00000000</i>
  </separator>
  <separator name="model GW" >
   <i type="int" name="MODEL_GW">     0</i>
   <i name="MODEL_EPS0">     87.27272727</i>
   <i name="MODEL_ALPHA">      1.00000000</i>
  </separator>
  <separator name="linear response parameters" >
   <i type="logical" name="LEPSILON"> F  </i>
   <i type="logical" name="LRPA"> F  </i>
   <i type="logical" name="LNABLA"> F  </i>
   <i type="logical" name="LVEL"> F  </i>
   <i type="int" name="KINTER">     0</i>
   <i name="CSHIFT">      0.10000000</i>
   <i name="OMEGAMAX">     -1.00000000</i>
   <i name="DEG_THRESHOLD">      0.00200000</i>
  </separator>
  <separator name="orbital magnetization" >
   <i type="logical" name="NUCIND"> F  </i>
   <v name="MAGPOS">      0.00000000      0.00000000      0.00000000</v>
   <i type="logical" name="LNICSALL"> T  </i>
   <i type="logical" name="ORBITALMAG"> F  </i>
   <i type="logical" name="LMAGBLOCH"> F  </i>
   <i type="logical" name="LCHIMAG"> F  </i>
   <i type="logical" name="LGAUGE"> T  </i>
   <i type="int" name="MAGATOM">     0</i>
   <v name="MAGDIPOL">      0.00000000      0.00000000      0.00000000</v>
   <v name="AVECCONST">      0.00000000      0.00000000      0.00000000</v>
  </separator>
  <separator name="response functions" >
   <i type="logical" name="LADDER"> F  </i>
   <i type="logical" name="LFXC"> F  </i>
   <i type="logical" name="LHARTREE"> T  </i>
   <i type="int" name="IBSE">     0</i>
   <i type="logical" name="LTCTE"> F  </i>
   <i type="logical" name="LTETE"> F  </i>
   <i type="logical" name="LTRIPLET"> F  </i>
   <i type="logical" name="LFXCEPS"> F  </i>
   <i type="logical" name="LFXHEG"> F  </i>
   <i type="logical" name="L2ORDER"> F  </i>
   <i type="logical" name="LUSEW"> F  </i>
   <i name="ENCUTGW">     -2.00000000</i>
   <i name="ENCUTGWSOFT">     -2.00000000</i>
   <i name="ENCUTLF">     -1.00000000</i>
   <i type="int" name="LMAXMP2">    -1</i>
   <i name="SCISSOR">      0.00000000</i>
   <i type="int" name="NOMEGA">     0</i>
   <i type="int" name="NOMEGAR">     0</i>
   <i type="int" name="NBANDSGW">    -1</i>
   <i type="int" name="NBANDSO">    -1</i>
   <i type="int" name="NBANDSV">    -1</i>
   <i type="int" name="NELM">     1</i>
   <i type="int" name="DIM">     3</i>
   <i type="int" name="ANTIRES">     0</i>
   <i name="OMEGAMAX">    -30.00000000</i>
   <i name="OMEGAMIN">    -30.00000000</i>
   <i name="OMEGATL">   -200.00000000</i>
   <i type="int" name="OMEGAGRID">     0</i>
   <i name="CSHIFT">     -0.10000000</i>
   <i type="logical" name="SELFENERGY"> F  </i>
   <i type="logical" name="LSPECTRAL"> F  </i>
   <i type="logical" name="ODDONLYGW"> F  </i>
   <i type="logical" name="EVENONLYGW"> F  </i>
   <i type="int" name="NKREDLFX">     1</i>
   <i type="int" name="NKREDLFY">     1</i>
   <i type="int" name="NKREDLFZ">     1</i>
   <i type="int" name="MAXMEM">  1800</i>
   <i type="int" name="TELESCOPE">     0</i>
   <i type="int" name="TAUPAR">     1</i>
  </separator>
  <separator name="External order field" >
   <i name="OFIELD_KAPPA">      0.00000000</i>
   <v name="OFIELD_K">      0.00000000      0.00000000      0.00000000</v>
   <i name="OFIELD_Q6_NEAR">      0.00000000</i>
   <i name="OFIELD_Q6_FAR">      0.00000000</i>
   <i name="OFIELD_A">      0.00000000</i>
  </separator>
 </parameters>
 <atominfo>
  <atoms>      55 </atoms>
  <types>       6 </types>
  <array name="atoms" >
   <dimension dim="1">ion</dimension>
   <field type="string">element</field>
   <field type="int">atomtype</field>
   <set>
    <rc><c>C </c><c>   1</c></rc>
    <rc><c>C </c><c>   2</c></rc>
    <rc><c>C </c><c>   2</c></rc>
    <rc><c>C </c><c>   2</c></rc>
    <rc><c>C </c><c>   2</c></rc>
    <rc><c>C </c><c>   2</c></rc>
    <rc><c>C </c><c>   2</c></rc>
    <rc><c>C </c><c>   2</c></rc>
    <rc><c>C </c><c>   2</c></rc>
    <rc><c>C </c><c>   2</c></rc>
    <rc><c>C </c><c>   2</c></rc>
    <rc><c>C </c><c>   2</c></rc>
    <rc><c>C </c><c>   2</c></rc>
    <rc><c>C </c><c>   2</c></rc>
    <rc><c>C </c><c>   2</c></rc>
    <rc><c>C </c><c>   2</c></rc>
    <rc><c>C </c><c>   2</c></rc>
    <rc><c>C </c><c>   2</c></rc>
    <rc><c>C </c><c>   2</c></rc>
    <rc><c>C </c><c>   2</c></rc>
    <rc><c>C </c><c>   2</c></rc>
    <rc><c>C </c><c>   2</c></rc>
    <rc><c>C </c><c>   2</c></rc>
    <rc><c>C </c><c>   2</c></rc>
    <rc><c>C </c><c>   2</c></rc>
    <rc><c>H </c><c>   3</c></rc>
    <rc><c>H </c><c>   3</c></rc>
    <rc><c>H </c><c>   3</c></rc>
    <rc><c>H </c><c>   3</c></rc>
    <rc><c>H </c><c>   3</c></rc>
    <rc><c>H </c><c>   3</c></rc>
    <rc><c>H </c><c>   3</c></rc>
    <rc><c>H </c><c>   3</c></rc>
    <rc><c>H </c><c>   3</c></rc>
    <rc><c>H </c><c>   3</c></rc>
    <rc><c>H </c><c>   3</c></rc>
    <rc><c>H </c><c>   3</c></rc>
    <rc><c>H </c><c>   3</c></rc>
    <rc><c>H </c><c>   3</c></rc>
    <rc><c>H </c><c>   3</c></rc>
    <rc><c>H </c><c>   3</c></rc>
    <rc><c>H </c><c>   3</c></rc>
    <rc><c>H </c><c>   3</c></rc>
    <rc><c>H </c><c>   3</c></rc>
    <rc><c>H </c><c>   3</c></rc>
    <rc><c>H </c><c>   3</c></rc>
    <rc><c>H </c><c>   3</c></rc>
    <rc><c>H </c><c>   3</c></rc>
    <rc><c>N </c><c>   4</c></rc>
    <rc><c>N </c><c>   4</c></rc>
    <rc><c>N </c><c>   4</c></rc>
    <rc><c>N </c><c>   4</c></rc>
    <rc><c>N </c><c>   4</c></rc>
    <rc><c>O </c><c>   5</c></rc>
    <rc><c>Ru</c><c>   6</c></rc>
   </set>
  </array>
  <array name="atomtypes" >
   <dimension dim="1">type</dimension>
   <field type="int">atomspertype</field>
   <field type="string">element</field>
   <field>mass</field>
   <field>valence</field>
   <field type="string">pseudopotential</field>
   <set>
    <rc><c>   1</c><c>C </c><c>     12.01100000</c><c>      4.50000000</c><c>  PAW_PBE C_h 06Feb2004                 </c></rc>
    <rc><c>  24</c><c>C </c><c>     12.01100000</c><c>      4.00000000</c><c>  PAW_PBE C_h 06Feb2004                 </c></rc>
    <rc><c>  23</c><c>H </c><c>      1.00000000</c><c>      1.00000000</c><c>  PAW_PBE H 15Jun2001                   </c></rc>
    <rc><c>   5</c><c>N </c><c>     14.00100000</c><c>      5.00000000</c><c>  PAW_PBE N_h 06Feb2004                 </c></rc>
    <rc><c>   1</c><c>O </c><c>     16.00000000</c><c>      6.00000000</c><c>  PAW_PBE O_h 06Feb2004                 </c></rc>
    <rc><c>   1</c><c>Ru</c><c>    101.07000000</c><c>     14.00000000</c><c>  PAW_PBE Ru_pv 28Jan2005               </c></rc>
   </set>
  </array>
 </atominfo>
 <structure name="initialpos" >
  <crystal>
   <varray name="basis" >
    <v>      20.00000000       0.00000000       0.00000000 </v>
    <v>       0.00000000      20.00000000       0.00000000 </v>
    <v>       0.00000000       0.00000000      20.00000000 </v>
   </varray>
   <i name="volume">   8000.00000000 </i>
   <varray name="rec_basis" >
    <v>       0.05000000       0.00000000       0.00000000 </v>
    <v>       0.00000000       0.05000000       0.00000000 </v>
    <v>       0.00000000       0.00000000       0.05000000 </v>
   </varray>
  </crystal>
  <varray name="positions" >
   <v>       0.73964927       0.52855915       0.53463181 </v>
   <v>       0.43793752       0.56561110       0.32757008 </v>
   <v>       0.45581208       0.52423376       0.38051465 </v>
   <v>       0.47372925       0.61530131       0.44986522 </v>
   <v>       0.45595175       0.65963312       0.39935201 </v>
   <v>       0.43785737       0.63472201       0.33675972 </v>
   <v>       0.52307882       0.32955005       0.67474498 </v>
   <v>       0.49710163       0.37190466       0.62618823 </v>
   <v>       0.60227374       0.41933300       0.60593616 </v>
   <v>       0.63096398       0.37761922       0.65422416 </v>
   <v>       0.29334713       0.47671938       0.56830116 </v>
   <v>       0.70082162       0.56612858       0.49044049 </v>
   <v>       0.63257913       0.55363620       0.48652424 </v>
   <v>       0.63952130       0.46927713       0.56732841 </v>
   <v>       0.70843899       0.47974495       0.57314689 </v>
   <v>       0.59134754       0.33224398       0.68903016 </v>
   <v>       0.36211554       0.48866484       0.56417415 </v>
   <v>       0.40790931       0.62211625       0.69058213 </v>
   <v>       0.47619960       0.62606623       0.67660612 </v>
   <v>       0.50295190       0.58590820       0.62668073 </v>
   <v>       0.39825425       0.53800137       0.60426081 </v>
   <v>       0.36904589       0.57756069       0.65398228 </v>
   <v>       0.37289802       0.40579857       0.48223443 </v>
   <v>       0.30486503       0.39173492       0.48443166 </v>
   <v>       0.26422003       0.42785518       0.52821594 </v>
   <v>       0.48989745       0.29510618       0.70074864 </v>
   <v>       0.61334240       0.29968355       0.72673159 </v>
   <v>       0.68424189       0.38076917       0.66478776 </v>
   <v>       0.54225374       0.36233861       0.46129841 </v>
   <v>       0.31579090       0.57306911       0.66420366 </v>
   <v>       0.44416348       0.37118871       0.61364770 </v>
   <v>       0.42392665       0.66833230       0.29622671 </v>
   <v>       0.45642762       0.71313270       0.40950260 </v>
   <v>       0.48809132       0.63358802       0.49907234 </v>
   <v>       0.56912778       0.41808713       0.41480476 </v>
   <v>       0.73767440       0.44963919       0.60776512 </v>
   <v>       0.72277620       0.60481012       0.45904817 </v>
   <v>       0.45570253       0.47012894       0.37468790 </v>
   <v>       0.40614333       0.37888556       0.44852541 </v>
   <v>       0.28443799       0.35306162       0.45202062 </v>
   <v>       0.79326502       0.53703787       0.53892527 </v>
   <v>       0.55589708       0.58769132       0.61440612 </v>
   <v>       0.42412006       0.54328620       0.27986105 </v>
   <v>       0.50894741       0.65984570       0.70400156 </v>
   <v>       0.26265982       0.50568523       0.60265428 </v>
   <v>       0.21072272       0.41813760       0.53105039 </v>
   <v>       0.60090654       0.58197914       0.45254259 </v>
   <v>       0.38544357       0.65296704       0.72941133 </v>
   <v>       0.47424490       0.54794204       0.44140236 </v>
   <v>       0.40180479       0.45306079       0.52108436 </v>
   <v>       0.53520702       0.41608490       0.59173240 </v>
   <v>       0.46544808       0.54254992       0.59041194 </v>
   <v>       0.60138410       0.50650621       0.52397638 </v>
   <v>       0.53073984       0.40562607       0.44215451 </v>
   <v>       0.50088568       0.48087016       0.51934246 </v>
  </varray>
  <varray name="selective"  type="logical" >
   <v type="logical" >  T  T  T </v>
   <v type="logical" >  T  T  T </v>
   <v type="logical" >  T  T  T </v>
   <v type="logical" >  T  T  T </v>
   <v type="logical" >  T  T  T </v>
   <v type="logical" >  T  T  T </v>
   <v type="logical" >  T  T  T </v>
   <v type="logical" >  T  T  T </v>
   <v type="logical" >  T  T  T </v>
   <v type="logical" >  T  T  T </v>
   <v type="logical" >  T  T  T </v>
   <v type="logical" >  T  T  T </v>
   <v type="logical" >  T  T  T </v>
   <v type="logical" >  T  T  T </v>
   <v type="logical" >  T  T  T </v>
   <v type="logical" >  T  T  T </v>
   <v type="logical" >  T  T  T </v>
   <v type="logical" >  T  T  T </v>
   <v type="logical" >  T  T  T </v>
   <v type="logical" >  T  T  T </v>
   <v type="logical" >  T  T  T </v>
   <v type="logical" >  T  T  T </v>
   <v type="logical" >  T  T  T </v>
   <v type="logical" >  T  T  T </v>
   <v type="logical" >  T  T  T </v>
   <v type="logical" >  T  T  T </v>
   <v type="logical" >  T  T  T </v>
   <v type="logical" >  T  T  T </v>
   <v type="logical" >  T  T  T </v>
   <v type="logical" >  T  T  T </v>
   <v type="logical" >  T  T  T </v>
   <v type="logical" >  T  T  T </v>
   <v type="logical" >  T  T  T </v>
   <v type="logical" >  T  T  T </v>
   <v type="logical" >  T  T  T </v>
   <v type="logical" >  T  T  T </v>
   <v type="logical" >  T  T  T </v>
   <v type="logical" >  T  T  T </v>
   <v type="logical" >  T  T  T </v>
   <v type="logical" >  T  T  T </v>
   <v type="logical" >  T  T  T </v>
   <v type="logical" >  T  T  T </v>
   <v type="logical" >  T  T  T </v>
   <v type="logical" >  T  T  T </v>
   <v type="logical" >  T  T  T </v>
   <v type="logical" >  T  T  T </v>
   <v type="logical" >  T  T  T </v>
   <v type="logical" >  T  T  T </v>
   <v type="logical" >  T  T  T </v>
   <v type="logical" >  T  T  T </v>
   <v type="logical" >  T  T  T </v>
   <v type="logical" >  T  T  T </v>
   <v type="logical" >  T  T  T </v>
   <v type="logical" >  T  T  T </v>
   <v type="logical" >  T  T  T </v>
  </varray>
  <nose>
   <v>      -3.00000000       0.00000000       0.00010000       0.00010000 </v>
  </nose>
 </structure>
 <calculation>
  <scstep>
   <time name="dav">   14.87   15.79</time>
   <time name="total">   22.42   23.38</time>
   <energy>
    <i name="alphaZ">     12.91687988 </i>
    <i name="ewald">  23263.60588892 </i>
    <i name="hartreedc"> -28865.91267448 </i>
    <i name="XCdc">    400.93211402 </i>
    <i name="pawpsdc">   5890.45591622 </i>
    <i name="pawaedc">  -5710.10246236 </i>
    <i name="eentropy">     -0.00000531 </i>
    <i name="bandstr">  -1676.34390411 </i>
    <i name="atom">   7593.39991119 </i>
    <i name="e_fr_energy">    908.95166398 </i>
    <i name="e_wo_entrp">    908.95166928 </i>
    <i name="e_0_energy">    908.95166663 </i>
   </energy>
  </scstep>
  <scstep>
   <time name="dav">   19.38   20.43</time>
   <time name="total">   19.40   20.44</time>
   <energy>
    <i name="e_fr_energy">    -67.59493771 </i>
    <i name="e_wo_entrp">    -67.59493771 </i>
    <i name="e_0_energy">    -67.59493771 </i>
   </energy>
  </scstep>
  <scstep>
   <time name="dav">   16.16   17.10</time>
   <time name="total">   16.17   17.11</time>
   <energy>
    <i name="e_fr_energy">   -393.58699227 </i>
    <i name="e_wo_entrp">   -393.58699227 </i>
    <i name="e_0_energy">   -393.58699227 </i>
   </energy>
  </scstep>
  <scstep>
   <time name="dav">   12.84   13.54</time>
   <time name="total">   12.85   13.54</time>
   <energy>
    <i name="e_fr_energy">   -412.45069893 </i>
    <i name="e_wo_entrp">   -412.45069893 </i>
    <i name="e_0_energy">   -412.45069893 </i>
   </energy>
  </scstep>
  <scstep>
   <time name="dav">   17.26   18.27</time>
   <time name="total">   22.47   23.51</time>
   <energy>
    <i name="e_fr_energy">   -412.70047579 </i>
    <i name="e_wo_entrp">   -412.70047579 </i>
    <i name="e_0_energy">   -412.70047579 </i>
   </energy>
  </scstep>
  <scstep>
   <time name="dav">   11.02   11.65</time>
   <time name="total">   23.66   24.35</time>
   <energy>
    <i name="e_fr_energy">   -392.72805322 </i>
    <i name="e_wo_entrp">   -392.72805322 </i>
    <i name="e_0_energy">   -392.72805322 </i>
   </energy>
  </scstep>
  <scstep>
   <time name="dav">   15.19   16.48</time>
   <time name="total">   27.96   29.52</time>
   <energy>
    <i name="e_fr_energy">   -382.67754371 </i>
    <i name="e_wo_entrp">   -382.67754371 </i>
    <i name="e_0_energy">   -382.67754371 </i>
   </energy>
  </scstep>
  <scstep>
   <time name="dav">   15.26   16.54</time>
   <time name="total">   27.98   29.31</time>
   <energy>
    <i name="e_fr_energy">   -378.73075145 </i>
    <i name="e_wo_entrp">   -378.73075145 </i>
    <i name="e_0_energy">   -378.73075145 </i>
   </energy>
  </scstep>
  <scstep>
   <time name="dav">   15.15   16.42</time>
   <time name="total">   27.86   29.19</time>
   <energy>
    <i name="e_fr_energy">   -377.64765562 </i>
    <i name="e_wo_entrp">   -377.64765562 </i>
    <i name="e_0_energy">   -377.64765562 </i>
   </energy>
  </scstep>
  <scstep>
   <time name="dav">   15.28   16.55</time>
   <time name="total">   28.04   29.34</time>
   <energy>
    <i name="e_fr_energy">   -377.61062994 </i>
    <i name="e_wo_entrp">   -377.61062994 </i>
    <i name="e_0_energy">   -377.61062994 </i>
   </energy>
  </scstep>
  <scstep>
   <time name="dav">   17.29   18.64</time>
   <time name="total">   30.20   31.59</time>
   <energy>
    <i name="e_fr_energy">   -377.46905524 </i>
    <i name="e_wo_entrp">   -377.46905524 </i>
    <i name="e_0_energy">   -377.46905524 </i>
   </energy>
  </scstep>
  <scstep>
   <time name="dav">   15.27   16.54</time>
   <time name="total">   27.92   29.23</time>
   <energy>
    <i name="e_fr_energy">   -377.39527267 </i>
    <i name="e_wo_entrp">   -377.39527267 </i>
    <i name="e_0_energy">   -377.39527267 </i>
   </energy>
  </scstep>
  <scstep>
   <time name="dav">   15.23   16.55</time>
   <time name="total">   27.97   29.43</time>
   <energy>
    <i name="e_fr_energy">   -377.37008143 </i>
    <i name="e_wo_entrp">   -377.37008143 </i>
    <i name="e_0_energy">   -377.37008143 </i>
   </energy>
  </scstep>
  <scstep>
   <time name="dav">   15.27   16.54</time>
   <time name="total">   28.03   29.33</time>
   <energy>
    <i name="e_fr_energy">   -377.36371746 </i>
    <i name="e_wo_entrp">   -377.36371746 </i>
    <i name="e_0_energy">   -377.36371746 </i>
   </energy>
  </scstep>
  <scstep>
   <time name="dav">   15.12   16.43</time>
   <time name="total">   27.90   29.25</time>
   <energy>
    <i name="e_fr_energy">   -377.36644489 </i>
    <i name="e_wo_entrp">   -377.36644489 </i>
    <i name="e_0_energy">   -377.36644489 </i>
   </energy>
  </scstep>
  <scstep>
   <time name="dav">   15.28   16.55</time>
   <time name="total">   28.14   29.45</time>
   <energy>
    <i name="e_fr_energy">   -377.37732563 </i>
    <i name="e_wo_entrp">   -377.37732563 </i>
    <i name="e_0_energy">   -377.37732563 </i>
   </energy>
  </scstep>
  <scstep>
   <time name="dav">   15.14   16.45</time>
   <time name="total">   27.90   29.24</time>
   <energy>
    <i name="e_fr_energy">   -377.38321139 </i>
    <i name="e_wo_entrp">   -377.38321139 </i>
    <i name="e_0_energy">   -377.38321139 </i>
   </energy>
  </scstep>
  <scstep>
   <time name="dav">   15.21   16.54</time>
   <time name="total">   27.92   29.51</time>
   <energy>
    <i name="e_fr_energy">   -377.38868515 </i>
    <i name="e_wo_entrp">   -377.38868515 </i>
    <i name="e_0_energy">   -377.38868515 </i>
   </energy>
  </scstep>
  <scstep>
   <time name="dav">   15.14   16.42</time>
   <time name="total">   28.01   29.32</time>
   <energy>
    <i name="e_fr_energy">   -377.39154200 </i>
    <i name="e_wo_entrp">   -377.39154200 </i>
    <i name="e_0_energy">   -377.39154200 </i>
   </energy>
  </scstep>
  <scstep>
   <time name="dav">   15.26   16.56</time>
   <time name="total">   28.21   29.54</time>
   <energy>
    <i name="e_fr_energy">   -377.39325719 </i>
    <i name="e_wo_entrp">   -377.39325719 </i>
    <i name="e_0_energy">   -377.39325719 </i>
   </energy>
  </scstep>
  <scstep>
   <time name="dav">   15.14   16.41</time>
   <time name="total">   28.06   29.35</time>
   <energy>
    <i name="e_fr_energy">   -377.39501525 </i>
    <i name="e_wo_entrp">   -377.39501525 </i>
    <i name="e_0_energy">   -377.39501525 </i>
   </energy>
  </scstep>
  <scstep>
   <time name="dav">   14.17   15.42</time>
   <time name="total">   27.27   28.57</time>
   <energy>
    <i name="e_fr_energy">   -377.39584196 </i>
    <i name="e_wo_entrp">   -377.39584196 </i>
    <i name="e_0_energy">   -377.39584196 </i>
   </energy>
  </scstep>
  <scstep>
   <time name="dav">   13.24   14.39</time>
   <time name="total">   26.13   27.32</time>
   <energy>
    <i name="e_fr_energy">   -377.39639772 </i>
    <i name="e_wo_entrp">   -377.39639772 </i>
    <i name="e_0_energy">   -377.39639772 </i>
   </energy>
  </scstep>
  <scstep>
   <time name="dav">   13.25   14.40</time>
   <time name="total">   26.16   27.36</time>
   <energy>
    <i name="e_fr_energy">   -377.39674982 </i>
    <i name="e_wo_entrp">   -377.39674982 </i>
    <i name="e_0_energy">   -377.39674982 </i>
   </energy>
  </scstep>
  <scstep>
   <time name="dav">   13.21   14.38</time>
   <time name="total">   26.14   27.33</time>
   <energy>
    <i name="e_fr_energy">   -377.39688137 </i>
    <i name="e_wo_entrp">   -377.39688137 </i>
    <i name="e_0_energy">   -377.39688137 </i>
   </energy>
  </scstep>
  <scstep>
   <time name="dav">   13.33   14.49</time>
   <time name="total">   26.32   27.53</time>
   <energy>
    <i name="e_fr_energy">   -377.39699451 </i>
    <i name="e_wo_entrp">   -377.39699451 </i>
    <i name="e_0_energy">   -377.39699451 </i>
   </energy>
  </scstep>
  <scstep>
   <time name="dav">   13.31   14.48</time>
   <time name="total">   26.28   27.50</time>
   <energy>
    <i name="e_fr_energy">   -377.39705461 </i>
    <i name="e_wo_entrp">   -377.39705461 </i>
    <i name="e_0_energy">   -377.39705461 </i>
   </energy>
  </scstep>
  <scstep>
   <time name="dav">   13.33   14.50</time>
   <time name="total">   26.25   27.47</time>
   <energy>
    <i name="e_fr_energy">   -377.39708050 </i>
    <i name="e_wo_entrp">   -377.39708050 </i>
    <i name="e_0_energy">   -377.39708050 </i>
   </energy>
  </scstep>
  <scstep>
   <time name="dav">   13.32   14.50</time>
   <time name="total">   26.24   27.44</time>
   <energy>
    <i name="e_fr_energy">   -377.39709361 </i>
    <i name="e_wo_entrp">   -377.39709361 </i>
    <i name="e_0_energy">   -377.39709361 </i>
   </energy>
  </scstep>
  <scstep>
   <time name="dav">   13.20   14.36</time>
   <time name="total">   20.76   21.96</time>
   <energy>
    <i name="alphaZ">     12.91687988 </i>
    <i name="ewald">  23263.60588892 </i>
    <i name="hartreedc"> -29106.48392889 </i>
    <i name="XCdc">    424.24268051 </i>
    <i name="pawpsdc">  81174.17355205 </i>
    <i name="pawaedc"> -81001.03490559 </i>
    <i name="eentropy">     -0.00000000 </i>
    <i name="bandstr">  -2738.21718130 </i>
    <i name="atom">   7593.39991119 </i>
    <i name="e_fr_energy">   -377.39710322 </i>
    <i name="e_wo_entrp">   -377.39710322 </i>
    <i name="e_0_energy">   -377.39710322 </i>
   </energy>
  </scstep>
  <structure>
   <crystal>
    <varray name="basis" >
     <v>      20.00000000       0.00000000       0.00000000 </v>
     <v>       0.00000000      20.00000000       0.00000000 </v>
     <v>       0.00000000       0.00000000      20.00000000 </v>
    </varray>
    <i name="volume">   8000.00000000 </i>
    <varray name="rec_basis" >
     <v>       0.05000000       0.00000000       0.00000000 </v>
     <v>       0.00000000       0.05000000       0.00000000 </v>
     <v>       0.00000000       0.00000000       0.05000000 </v>
    </varray>
   </crystal>
   <varray name="positions" >
    <v>       0.73964927       0.52855915       0.53463181 </v>
    <v>       0.43793752       0.56561110       0.32757008 </v>
    <v>       0.45581208       0.52423376       0.38051465 </v>
    <v>       0.47372925       0.61530131       0.44986522 </v>
    <v>       0.45595175       0.65963312       0.39935201 </v>
    <v>       0.43785737       0.63472201       0.33675972 </v>
    <v>       0.52307882       0.32955005       0.67474498 </v>
    <v>       0.49710163       0.37190466       0.62618823 </v>
    <v>       0.60227374       0.41933300       0.60593616 </v>
    <v>       0.63096398       0.37761922       0.65422416 </v>
    <v>       0.29334713       0.47671938       0.56830116 </v>
    <v>       0.70082162       0.56612858       0.49044049 </v>
    <v>       0.63257913       0.55363620       0.48652424 </v>
    <v>       0.63952130       0.46927713       0.56732841 </v>
    <v>       0.70843899       0.47974495       0.57314689 </v>
    <v>       0.59134754       0.33224398       0.68903016 </v>
    <v>       0.36211554       0.48866484       0.56417415 </v>
    <v>       0.40790931       0.62211625       0.69058213 </v>
    <v>       0.47619960       0.62606623       0.67660612 </v>
    <v>       0.50295190       0.58590820       0.62668073 </v>
    <v>       0.39825425       0.53800137       0.60426081 </v>
    <v>       0.36904589       0.57756069       0.65398228 </v>
    <v>       0.37289802       0.40579857       0.48223443 </v>
    <v>       0.30486503       0.39173492       0.48443166 </v>
    <v>       0.26422003       0.42785518       0.52821594 </v>
    <v>       0.48989745       0.29510618       0.70074864 </v>
    <v>       0.61334240       0.29968355       0.72673159 </v>
    <v>       0.68424189       0.38076917       0.66478776 </v>
    <v>       0.54225374       0.36233861       0.46129841 </v>
    <v>       0.31579090       0.57306911       0.66420366 </v>
    <v>       0.44416348       0.37118871       0.61364770 </v>
    <v>       0.42392665       0.66833230       0.29622671 </v>
    <v>       0.45642762       0.71313270       0.40950260 </v>
    <v>       0.48809132       0.63358802       0.49907234 </v>
    <v>       0.56912778       0.41808713       0.41480476 </v>
    <v>       0.73767440       0.44963919       0.60776512 </v>
    <v>       0.72277620       0.60481012       0.45904817 </v>
    <v>       0.45570253       0.47012894       0.37468790 </v>
    <v>       0.40614333       0.37888556       0.44852541 </v>
    <v>       0.28443799       0.35306162       0.45202062 </v>
    <v>       0.79326502       0.53703787       0.53892527 </v>
    <v>       0.55589708       0.58769132       0.61440612 </v>
    <v>       0.42412006       0.54328620       0.27986105 </v>
    <v>       0.50894741       0.65984570       0.70400156 </v>
    <v>       0.26265982       0.50568523       0.60265428 </v>
    <v>       0.21072272       0.41813760       0.53105039 </v>
    <v>       0.60090654       0.58197914       0.45254259 </v>
    <v>       0.38544357       0.65296704       0.72941133 </v>
    <v>       0.47424490       0.54794204       0.44140236 </v>
    <v>       0.40180479       0.45306079       0.52108436 </v>
    <v>       0.53520702       0.41608490       0.59173240 </v>
    <v>       0.46544808       0.54254992       0.59041194 </v>
    <v>       0.60138410       0.50650621       0.52397638 </v>
    <v>       0.53073984       0.40562607       0.44215451 </v>
    <v>       0.50088568       0.48087016       0.51934246 </v>
   </varray>
  </structure>
  <varray name="forces" >
   <v>      -0.19948543      -0.10489954       0.05088993 </v>
   <v>      -0.00476624      -0.00743563      -0.00372325 </v>
   <v>      -0.00080029      -0.03537218       0.00392381 </v>
   <v>       0.01393612       0.00962975       0.01454352 </v>
   <v>       0.01027127       0.01418225       0.01030886 </v>
   <v>      -0.00141689      -0.00344997       0.00146359 </v>
   <v>       0.05277082      -0.00884991       0.02068772 </v>
   <v>       0.00625785       0.05931500      -0.05928591 </v>
   <v>       0.04643354      -0.06165401       0.07072054 </v>
   <v>       0.03584836       0.04006024      -0.02548458 </v>
   <v>       0.01222104       0.00484131       0.00234489 </v>
   <v>       0.39557950      -0.48954351       0.54861640 </v>
   <v>       0.16215175       0.02695221       0.00842238 </v>
   <v>       0.00975230      -0.09995689       0.10203483 </v>
   <v>       0.42321278       0.72099461      -0.57770995 </v>
   <v>      -0.00164178      -0.02789891       0.02807020 </v>
   <v>       0.02624419       0.00594317      -0.00786053 </v>
   <v>       0.01703477      -0.00590693      -0.01396106 </v>
   <v>       0.00744417       0.00735586       0.00641669 </v>
   <v>      -0.02122262      -0.02812888      -0.02874337 </v>
   <v>       0.01758684      -0.01220874      -0.01723545 </v>
   <v>       0.00404472      -0.00122923      -0.00692467 </v>
   <v>       0.08060602       0.00179610      -0.01632145 </v>
   <v>      -0.02118698       0.00566820       0.01319400 </v>
   <v>       0.02705492      -0.00905998      -0.01541006 </v>
   <v>       0.00021182      -0.00802634       0.00703701 </v>
   <v>       0.00373522      -0.00146465       0.00315955 </v>
   <v>       0.01079773      -0.03169292       0.03577708 </v>
   <v>      -0.01436544      -0.04190853      -0.02331402 </v>
   <v>       0.00155225       0.00442472      -0.00156590 </v>
   <v>       0.00150072      -0.00183309      -0.00092259 </v>
   <v>      -0.00395409       0.00557452      -0.00125292 </v>
   <v>       0.00123692       0.00217354       0.00116036 </v>
   <v>      -0.01029446       0.01738072       0.00827837 </v>
   <v>      -0.04858489      -0.02806963      -0.05523542 </v>
   <v>       0.12320635       0.10374697      -0.06894438 </v>
   <v>       0.15550195      -0.05520149       0.08472412 </v>
   <v>      -0.01372849      -0.00298080      -0.01480740 </v>
   <v>      -0.00942338      -0.01112351      -0.00924498 </v>
   <v>       0.00550509      -0.00619599      -0.00212067 </v>
   <v>      -1.16070782      -0.17855996      -0.09412768 </v>
   <v>      -0.00297360       0.01949484       0.01854258 </v>
   <v>      -0.00582109      -0.00162200       0.00377597 </v>
   <v>      -0.00009821       0.00346992       0.00081958 </v>
   <v>       0.00256776      -0.00187851      -0.00126626 </v>
   <v>      -0.00338604      -0.00251179      -0.00182432 </v>
   <v>       0.07282764       0.03037285      -0.00955412 </v>
   <v>      -0.00053692       0.00675132       0.00612796 </v>
   <v>      -0.01424867       0.03786844      -0.03153240 </v>
   <v>      -0.12271078      -0.00988537       0.02308085 </v>
   <v>      -0.01827433       0.02241679      -0.00792289 </v>
   <v>      -0.09955065       0.09551157       0.11680291 </v>
   <v>      -0.41438655      -0.01241749      -0.05401714 </v>
   <v>       0.00436715       0.04440569       0.06026219 </v>
   <v>       0.46210411       0.00063575      -0.10087252 </v>
  </varray>
  <varray name="stress" >
   <v>      -3.24390878      -0.13273155      -0.01941092 </v>
   <v>      -0.13273151      -2.82222610       0.22544261 </v>
   <v>      -0.01941092       0.22544262      -2.81883557 </v>
  </varray>
  <energy>
   <i name="e_fr_energy">   -377.39710322 </i>
   <i name="e_wo_entrp">   -377.39710322 </i>
   <i name="e_0_energy">     -0.00000000 </i>
  </energy>
  <time name="totalsc"> 1011.51 1049.72</time>
  <eigenvalues>
   <array>
    <dimension dim="1">band</dimension>
    <dimension dim="2">kpoint</dimension>
    <dimension dim="3">spin</dimension>
    <field>eigene</field>
    <field>occ</field>
    <set>
     <set comment="spin 1">
      <set comment="kpoint 1">
       <r>  -49.1763    1.0000 </r>
       <r>  -49.0135    1.0000 </r>
       <r>  -48.7824    1.0000 </r>
       <r>  -29.2189    1.0000 </r>
       <r>  -27.4221    1.0000 </r>
       <r>  -26.8511    1.0000 </r>
       <r>  -26.5293    1.0000 </r>
       <r>  -26.1414    1.0000 </r>
       <r>  -26.1232    1.0000 </r>
       <r>  -24.2384    1.0000 </r>
       <r>  -22.9171    1.0000 </r>
       <r>  -22.5114    1.0000 </r>
       <r>  -22.3951    1.0000 </r>
       <r>  -22.2901    1.0000 </r>
       <r>  -22.1616    1.0000 </r>
       <r>  -22.0019    1.0000 </r>
       <r>  -21.3858    1.0000 </r>
       <r>  -21.0749    1.0000 </r>
       <r>  -20.7640    1.0000 </r>
       <r>  -19.4980    1.0000 </r>
       <r>  -19.4518    1.0000 </r>
       <r>  -18.7033    1.0000 </r>
       <r>  -18.4178    1.0000 </r>
       <r>  -18.1336    1.0000 </r>
       <r>  -17.9759    1.0000 </r>
       <r>  -17.8070    1.0000 </r>
       <r>  -17.5933    1.0000 </r>
       <r>  -17.5790    1.0000 </r>
       <r>  -17.2758    1.0000 </r>
       <r>  -16.8892    1.0000 </r>
       <r>  -16.5900    1.0000 </r>
       <r>  -15.8724    1.0000 </r>
       <r>  -15.7621    1.0000 </r>
       <r>  -15.3639    1.0000 </r>
       <r>  -15.2037    1.0000 </r>
       <r>  -14.7506    1.0000 </r>
       <r>  -14.7364    1.0000 </r>
       <r>  -14.6775    1.0000 </r>
       <r>  -14.2916    1.0000 </r>
       <r>  -14.0916    1.0000 </r>
       <r>  -14.0537    1.0000 </r>
       <r>  -14.0064    1.0000 </r>
       <r>  -13.9847    1.0000 </r>
       <r>  -13.8303    1.0000 </r>
       <r>  -13.7556    1.0000 </r>
       <r>  -13.7012    1.0000 </r>
       <r>  -13.4978    1.0000 </r>
       <r>  -13.3353    1.0000 </r>
       <r>  -13.1929    1.0000 </r>
       <r>  -13.0957    1.0000 </r>
       <r>  -12.8524    1.0000 </r>
       <r>  -12.7966    1.0000 </r>
       <r>  -12.7877    1.0000 </r>
       <r>  -12.6563    1.0000 </r>
       <r>  -12.5877    1.0000 </r>
       <r>  -12.4771    1.0000 </r>
       <r>  -12.3693    1.0000 </r>
       <r>  -12.2017    1.0000 </r>
       <r>  -12.1136    1.0000 </r>
       <r>  -12.0096    1.0000 </r>
       <r>  -11.6643    1.0000 </r>
       <r>  -11.4431    1.0000 </r>
       <r>  -11.3091    1.0000 </r>
       <r>  -11.2026    1.0000 </r>
       <r>  -11.0753    1.0000 </r>
       <r>  -11.0036    1.0000 </r>
       <r>  -10.7286    1.0000 </r>
       <r>  -10.7045    1.0000 </r>
       <r>  -10.4379    1.0000 </r>
       <r>  -10.3418    1.0000 </r>
       <r>  -10.0862    1.0000 </r>
       <r>  -10.0436    1.0000 </r>
       <r>   -9.8504    1.0000 </r>
       <r>   -9.7323    1.0000 </r>
       <r>   -9.6807    1.0000 </r>
       <r>   -9.5807    1.0000 </r>
       <r>   -9.3408    1.0000 </r>
       <r>   -8.8917    1.0000 </r>
       <r>   -8.7019    1.0000 </r>
       <r>   -8.3402    1.0000 </r>
       <r>   -7.5474    1.0000 </r>
       <r>   -7.2908    1.0000 </r>
       <r>   -7.1425    1.0000 </r>
       <r>   -5.7691    0.0000 </r>
       <r>   -5.1426    0.0000 </r>
       <r>   -4.9253    0.0000 </r>
       <r>   -4.3467    0.0000 </r>
       <r>   -4.1125    0.0000 </r>
       <r>   -4.0619    0.0000 </r>
       <r>   -3.9236    0.0000 </r>
       <r>   -3.8898    0.0000 </r>
       <r>   -3.4917    0.0000 </r>
       <r>   -3.3100    0.0000 </r>
       <r>   -3.1715    0.0000 </r>
       <r>   -2.9254    0.0000 </r>
       <r>   -2.6785    0.0000 </r>
       <r>   -1.9861    0.0000 </r>
       <r>   -1.6845    0.0000 </r>
       <r>   -1.6152    0.0000 </r>
       <r>   -1.4793    0.0000 </r>
       <r>   -1.3258    0.0000 </r>
       <r>   -1.1885    0.0000 </r>
       <r>   -1.0764    0.0000 </r>
       <r>   -1.0178    0.0000 </r>
       <r>   -0.9497    0.0000 </r>
       <r>   -0.7419    0.0000 </r>
       <r>   -0.6715    0.0000 </r>
       <r>   -0.6190    0.0000 </r>
       <r>   -0.5079    0.0000 </r>
       <r>   -0.3978    0.0000 </r>
       <r>   -0.3941    0.0000 </r>
       <r>   -0.3137    0.0000 </r>
       <r>   -0.2785    0.0000 </r>
       <r>   -0.1664    0.0000 </r>
       <r>   -0.0277    0.0000 </r>
       <r>    0.0162    0.0000 </r>
       <r>    0.1042    0.0000 </r>
       <r>    0.1934    0.0000 </r>
       <r>    0.1945    0.0000 </r>
       <r>    0.2778    0.0000 </r>
       <r>    0.3042    0.0000 </r>
       <r>    0.3872    0.0000 </r>
       <r>    0.4266    0.0000 </r>
       <r>    0.4935    0.0000 </r>
       <r>    0.5679    0.0000 </r>
       <r>    0.6219    0.0000 </r>
       <r>    0.6473    0.0000 </r>
       <r>    0.7023    0.0000 </r>
      </set>
     </set>
     <set comment="spin 2">
      <set comment="kpoint 1">
       <r>  -49.1763    1.0000 </r>
       <r>  -49.0135    1.0000 </r>
       <r>  -48.7824    1.0000 </r>
       <r>  -29.2189    1.0000 </r>
       <r>  -27.4221    1.0000 </r>
       <r>  -26.8511    1.0000 </r>
       <r>  -26.5293    1.0000 </r>
       <r>  -26.1414    1.0000 </r>
       <r>  -26.1232    1.0000 </r>
       <r>  -24.2384    1.0000 </r>
       <r>  -22.9171    1.0000 </r>
       <r>  -22.5114    1.0000 </r>
       <r>  -22.3951    1.0000 </r>
       <r>  -22.2901    1.0000 </r>
       <r>  -22.1616    1.0000 </r>
       <r>  -22.0019    1.0000 </r>
       <r>  -21.3858    1.0000 </r>
       <r>  -21.0749    1.0000 </r>
       <r>  -20.7640    1.0000 </r>
       <r>  -19.4980    1.0000 </r>
       <r>  -19.4518    1.0000 </r>
       <r>  -18.7033    1.0000 </r>
       <r>  -18.4178    1.0000 </r>
       <r>  -18.1336    1.0000 </r>
       <r>  -17.9759    1.0000 </r>
       <r>  -17.8070    1.0000 </r>
       <r>  -17.5933    1.0000 </r>
       <r>  -17.5790    1.0000 </r>
       <r>  -17.2758    1.0000 </r>
       <r>  -16.8892    1.0000 </r>
       <r>  -16.5900    1.0000 </r>
       <r>  -15.8724    1.0000 </r>
       <r>  -15.7621    1.0000 </r>
       <r>  -15.3639    1.0000 </r>
       <r>  -15.2037    1.0000 </r>
       <r>  -14.7506    1.0000 </r>
       <r>  -14.7364    1.0000 </r>
       <r>  -14.6775    1.0000 </r>
       <r>  -14.2916    1.0000 </r>
       <r>  -14.0916    1.0000 </r>
       <r>  -14.0537    1.0000 </r>
       <r>  -14.0064    1.0000 </r>
       <r>  -13.9847    1.0000 </r>
       <r>  -13.8303    1.0000 </r>
       <r>  -13.7556    1.0000 </r>
       <r>  -13.7012    1.0000 </r>
       <r>  -13.4978    1.0000 </r>
       <r>  -13.3353    1.0000 </r>
       <r>  -13.1929    1.0000 </r>
       <r>  -13.0957    1.0000 </r>
       <r>  -12.8524    1.0000 </r>
       <r>  -12.7966    1.0000 </r>
       <r>  -12.7877    1.0000 </r>
       <r>  -12.6563    1.0000 </r>
       <r>  -12.5877    1.0000 </r>
       <r>  -12.4771    1.0000 </r>
       <r>  -12.3693    1.0000 </r>
       <r>  -12.2017    1.0000 </r>
       <r>  -12.1136    1.0000 </r>
       <r>  -12.0096    1.0000 </r>
       <r>  -11.6643    1.0000 </r>
       <r>  -11.4431    1.0000 </r>
       <r>  -11.3091    1.0000 </r>
       <r>  -11.2026    1.0000 </r>
       <r>  -11.0753    1.0000 </r>
       <r>  -11.0036    1.0000 </r>
       <r>  -10.7286    1.0000 </r>
       <r>  -10.7045    1.0000 </r>
       <r>  -10.4379    1.0000 </r>
       <r>  -10.3418    1.0000 </r>
       <r>  -10.0862    1.0000 </r>
       <r>  -10.0436    1.0000 </r>
       <r>   -9.8504    1.0000 </r>
       <r>   -9.7323    1.0000 </r>
       <r>   -9.6807    1.0000 </r>
       <r>   -9.5807    1.0000 </r>
       <r>   -9.3408    1.0000 </r>
       <r>   -8.8917    1.0000 </r>
       <r>   -8.7019    1.0000 </r>
       <r>   -8.3402    1.0000 </r>
       <r>   -7.5474    1.0000 </r>
       <r>   -7.2908    1.0000 </r>
       <r>   -7.1425    1.0000 </r>
       <r>   -5.7691    0.0000 </r>
       <r>   -5.1426    0.0000 </r>
       <r>   -4.9253    0.0000 </r>
       <r>   -4.3467    0.0000 </r>
       <r>   -4.1125    0.0000 </r>
       <r>   -4.0619    0.0000 </r>
       <r>   -3.9236    0.0000 </r>
       <r>   -3.8898    0.0000 </r>
       <r>   -3.4917    0.0000 </r>
       <r>   -3.3100    0.0000 </r>
       <r>   -3.1715    0.0000 </r>
       <r>   -2.9254    0.0000 </r>
       <r>   -2.6785    0.0000 </r>
       <r>   -1.9861    0.0000 </r>
       <r>   -1.6845    0.0000 </r>
       <r>   -1.6152    0.0000 </r>
       <r>   -1.4793    0.0000 </r>
       <r>   -1.3258    0.0000 </r>
       <r>   -1.1885    0.0000 </r>
       <r>   -1.0765    0.0000 </r>
       <r>   -1.0179    0.0000 </r>
       <r>   -0.9497    0.0000 </r>
       <r>   -0.7419    0.0000 </r>
       <r>   -0.6715    0.0000 </r>
       <r>   -0.6190    0.0000 </r>
       <r>   -0.5079    0.0000 </r>
       <r>   -0.3978    0.0000 </r>
       <r>   -0.3941    0.0000 </r>
       <r>   -0.3137    0.0000 </r>
       <r>   -0.2785    0.0000 </r>
       <r>   -0.1665    0.0000 </r>
       <r>   -0.0278    0.0000 </r>
       <r>    0.0162    0.0000 </r>
       <r>    0.1042    0.0000 </r>
       <r>    0.1934    0.0000 </r>
       <r>    0.1945    0.0000 </r>
       <r>    0.2778    0.0000 </r>
       <r>    0.3042    0.0000 </r>
       <r>    0.3871    0.0000 </r>
       <r>    0.4266    0.0000 </r>
       <r>    0.4934    0.0000 </r>
       <r>    0.5678    0.0000 </r>
       <r>    0.6218    0.0000 </r>
       <r>    0.6473    0.0000 </r>
       <r>    0.7022    0.0000 </r>
      </set>
     </set>
    </set>
   </array>
  </eigenvalues>
  <separator name="orbital magnetization" >
   <v name="MAGDIPOLOUT">      0.00000000      0.00000000      0.00000000</v>
  </separator>
  <dos>
   <i name="efermi">     -6.99982526 </i>
   <total>
    <array>
     <dimension dim="1">gridpoints</dimension>
     <dimension dim="2">spin</dimension>
     <field>energy</field>
     <field>total</field>
     <field>integrated</field>
     <set>
      <set comment="spin 1">
       <r>   -51.6702     0.0000     0.0000 </r>
       <r>   -51.4873     0.0000     0.0000 </r>
       <r>   -51.3045     0.0000     0.0000 </r>
       <r>   -51.1216     0.0000     0.0000 </r>
       <r>   -50.9387     0.0000     0.0000 </r>
       <r>   -50.7558     0.0000     0.0000 </r>
       <r>   -50.5729     0.0000     0.0000 </r>
       <r>   -50.3900     0.0000     0.0000 </r>
       <r>   -50.2071     0.0000     0.0000 </r>
       <r>   -50.0242     0.0000     0.0000 </r>
       <r>   -49.8414     0.0000     0.0000 </r>
       <r>   -49.6585     0.0000     0.0000 </r>
       <r>   -49.4756     0.0000     0.0000 </r>
       <r>   -49.2927     0.0000     0.0000 </r>
       <r>   -49.1098    10.9357     2.0000 </r>
       <r>   -48.9269     0.0000     4.0000 </r>
       <r>   -48.7440    10.9357     6.0000 </r>
       <r>   -48.5611     0.0000     6.0000 </r>
       <r>   -48.3782     0.0000     6.0000 </r>
       <r>   -48.1954     0.0000     6.0000 </r>
       <r>   -48.0125     0.0000     6.0000 </r>
       <r>   -47.8296     0.0000     6.0000 </r>
       <r>   -47.6467     0.0000     6.0000 </r>
       <r>   -47.4638     0.0000     6.0000 </r>
       <r>   -47.2809     0.0000     6.0000 </r>
       <r>   -47.0980     0.0000     6.0000 </r>
       <r>   -46.9151     0.0000     6.0000 </r>
       <r>   -46.7323     0.0000     6.0000 </r>
       <r>   -46.5494     0.0000     6.0000 </r>
       <r>   -46.3665     0.0000     6.0000 </r>
       <r>   -46.1836     0.0000     6.0000 </r>
       <r>   -46.0007     0.0000     6.0000 </r>
       <r>   -45.8178     0.0000     6.0000 </r>
       <r>   -45.6349     0.0000     6.0000 </r>
       <r>   -45.4520     0.0000     6.0000 </r>
       <r>   -45.2692     0.0000     6.0000 </r>
       <r>   -45.0863     0.0000     6.0000 </r>
       <r>   -44.9034     0.0000     6.0000 </r>
       <r>   -44.7205     0.0000     6.0000 </r>
       <r>   -44.5376     0.0000     6.0000 </r>
       <r>   -44.3547     0.0000     6.0000 </r>
       <r>   -44.1718     0.0000     6.0000 </r>
       <r>   -43.9889     0.0000     6.0000 </r>
       <r>   -43.8060     0.0000     6.0000 </r>
       <r>   -43.6232     0.0000     6.0000 </r>
       <r>   -43.4403     0.0000     6.0000 </r>
       <r>   -43.2574     0.0000     6.0000 </r>
       <r>   -43.0745     0.0000     6.0000 </r>
       <r>   -42.8916     0.0000     6.0000 </r>
       <r>   -42.7087     0.0000     6.0000 </r>
       <r>   -42.5258     0.0000     6.0000 </r>
       <r>   -42.3429     0.0000     6.0000 </r>
       <r>   -42.1601     0.0000     6.0000 </r>
       <r>   -41.9772     0.0000     6.0000 </r>
       <r>   -41.7943     0.0000     6.0000 </r>
       <r>   -41.6114     0.0000     6.0000 </r>
       <r>   -41.4285     0.0000     6.0000 </r>
       <r>   -41.2456     0.0000     6.0000 </r>
       <r>   -41.0627     0.0000     6.0000 </r>
       <r>   -40.8798     0.0000     6.0000 </r>
       <r>   -40.6970     0.0000     6.0000 </r>
       <r>   -40.5141     0.0000     6.0000 </r>
       <r>   -40.3312     0.0000     6.0000 </r>
       <r>   -40.1483     0.0000     6.0000 </r>
       <r>   -39.9654     0.0000     6.0000 </r>
       <r>   -39.7825     0.0000     6.0000 </r>
       <r>   -39.5996     0.0000     6.0000 </r>
       <r>   -39.4167     0.0000     6.0000 </r>
       <r>   -39.2338     0.0000     6.0000 </r>
       <r>   -39.0510     0.0000     6.0000 </r>
       <r>   -38.8681     0.0000     6.0000 </r>
       <r>   -38.6852     0.0000     6.0000 </r>
       <r>   -38.5023     0.0000     6.0000 </r>
       <r>   -38.3194     0.0000     6.0000 </r>
       <r>   -38.1365     0.0000     6.0000 </r>
       <r>   -37.9536     0.0000     6.0000 </r>
       <r>   -37.7707     0.0000     6.0000 </r>
       <r>   -37.5879     0.0000     6.0000 </r>
       <r>   -37.4050     0.0000     6.0000 </r>
       <r>   -37.2221     0.0000     6.0000 </r>
       <r>   -37.0392     0.0000     6.0000 </r>
       <r>   -36.8563     0.0000     6.0000 </r>
       <r>   -36.6734     0.0000     6.0000 </r>
       <r>   -36.4905     0.0000     6.0000 </r>
       <r>   -36.3076     0.0000     6.0000 </r>
       <r>   -36.1247     0.0000     6.0000 </r>
       <r>   -35.9419     0.0000     6.0000 </r>
       <r>   -35.7590     0.0000     6.0000 </r>
       <r>   -35.5761     0.0000     6.0000 </r>
       <r>   -35.3932     0.0000     6.0000 </r>
       <r>   -35.2103     0.0000     6.0000 </r>
       <r>   -35.0274     0.0000     6.0000 </r>
       <r>   -34.8445     0.0000     6.0000 </r>
       <r>   -34.6616     0.0000     6.0000 </r>
       <r>   -34.4788     0.0000     6.0000 </r>
       <r>   -34.2959     0.0000     6.0000 </r>
       <r>   -34.1130     0.0000     6.0000 </r>
       <r>   -33.9301     0.0000     6.0000 </r>
       <r>   -33.7472     0.0000     6.0000 </r>
       <r>   -33.5643     0.0000     6.0000 </r>
       <r>   -33.3814     0.0000     6.0000 </r>
       <r>   -33.1985     0.0000     6.0000 </r>
       <r>   -33.0157     0.0000     6.0000 </r>
       <r>   -32.8328     0.0000     6.0000 </r>
       <r>   -32.6499     0.0000     6.0000 </r>
       <r>   -32.4670     0.0000     6.0000 </r>
       <r>   -32.2841     0.0000     6.0000 </r>
       <r>   -32.1012     0.0000     6.0000 </r>
       <r>   -31.9183     0.0000     6.0000 </r>
       <r>   -31.7354     0.0000     6.0000 </r>
       <r>   -31.5525     0.0000     6.0000 </r>
       <r>   -31.3697     0.0000     6.0000 </r>
       <r>   -31.1868     0.0000     6.0000 </r>
       <r>   -31.0039     0.0000     6.0000 </r>
       <r>   -30.8210     0.0000     6.0000 </r>
       <r>   -30.6381     0.0000     6.0000 </r>
       <r>   -30.4552     0.0000     6.0000 </r>
       <r>   -30.2723     0.0000     6.0000 </r>
       <r>   -30.0894     0.0000     6.0000 </r>
       <r>   -29.9066     0.0000     6.0000 </r>
       <r>   -29.7237     0.0000     6.0000 </r>
       <r>   -29.5408     0.0000     6.0000 </r>
       <r>   -29.3579     0.0000     6.0000 </r>
       <r>   -29.1750    10.9357     8.0000 </r>
       <r>   -28.9921     0.0000     8.0000 </r>
       <r>   -28.8092     0.0000     8.0000 </r>
       <r>   -28.6263     0.0000     8.0000 </r>
       <r>   -28.4435     0.0000     8.0000 </r>
       <r>   -28.2606     0.0000     8.0000 </r>
       <r>   -28.0777     0.0000     8.0000 </r>
       <r>   -27.8948     0.0000     8.0000 </r>
       <r>   -27.7119     0.0000     8.0000 </r>
       <r>   -27.5290     0.0000     8.0000 </r>
       <r>   -27.3461    10.9357    10.0000 </r>
       <r>   -27.1632     0.0000    10.0000 </r>
       <r>   -26.9803     0.0000    10.0000 </r>
       <r>   -26.7975    10.9357    12.0000 </r>
       <r>   -26.6146     0.0000    12.0000 </r>
       <r>   -26.4317     0.0000    14.0000 </r>
       <r>   -26.2488     0.0000    14.0000 </r>
       <r>   -26.0659    21.8713    18.0000 </r>
       <r>   -25.8830     0.0000    18.0000 </r>
       <r>   -25.7001     0.0000    18.0000 </r>
       <r>   -25.5172     0.0000    18.0000 </r>
       <r>   -25.3344     0.0000    18.0000 </r>
       <r>   -25.1515     0.0000    18.0000 </r>
       <r>   -24.9686     0.0000    18.0000 </r>
       <r>   -24.7857     0.0000    18.0000 </r>
       <r>   -24.6028     0.0000    18.0000 </r>
       <r>   -24.4199     0.0000    18.0000 </r>
       <r>   -24.2370     6.3181    19.1555 </r>
       <r>   -24.0541     0.0000    20.0000 </r>
       <r>   -23.8712     0.0000    20.0000 </r>
       <r>   -23.6884     0.0000    20.0000 </r>
       <r>   -23.5055     0.0000    20.0000 </r>
       <r>   -23.3226     0.0000    20.0000 </r>
       <r>   -23.1397     0.0000    20.0000 </r>
       <r>   -22.9568     0.0000    20.0000 </r>
       <r>   -22.7739     0.0000    22.0000 </r>
       <r>   -22.5910     0.0000    22.0000 </r>
       <r>   -22.4081     0.3545    24.0648 </r>
       <r>   -22.2253    10.9357    28.0000 </r>
       <r>   -22.0424     0.0000    30.0000 </r>
       <r>   -21.8595     0.0000    32.0000 </r>
       <r>   -21.6766     0.0000    32.0000 </r>
       <r>   -21.4937     0.0000    32.0000 </r>
       <r>   -21.3108    10.9357    34.0000 </r>
       <r>   -21.1279     0.0000    34.0000 </r>
       <r>   -20.9450     0.0000    36.0000 </r>
       <r>   -20.7622     6.5723    37.2020 </r>
       <r>   -20.5793     0.0000    38.0000 </r>
       <r>   -20.3964     0.0000    38.0000 </r>
       <r>   -20.2135     0.0000    38.0000 </r>
       <r>   -20.0306     0.0000    38.0000 </r>
       <r>   -19.8477     0.0000    38.0000 </r>
       <r>   -19.6648     0.0000    38.0000 </r>
       <r>   -19.4819    10.8111    39.9772 </r>
       <r>   -19.2990     0.0000    42.0000 </r>
       <r>   -19.1162     0.0000    42.0000 </r>
       <r>   -18.9333     0.0000    42.0000 </r>
       <r>   -18.7504     0.0000    42.0000 </r>
       <r>   -18.5675     0.0000    44.0000 </r>
       <r>   -18.3846    10.9356    46.0000 </r>
       <r>   -18.2017     0.0000    46.0000 </r>
       <r>   -18.0188     0.0000    48.0000 </r>
       <r>   -17.8359     0.0002    50.0000 </r>
       <r>   -17.6531     0.0000    52.0000 </r>
       <r>   -17.4702     0.0000    56.0000 </r>
       <r>   -17.2873     0.5774    56.1056 </r>
       <r>   -17.1044     0.0000    58.0000 </r>
       <r>   -16.9215     0.0000    58.0000 </r>
       <r>   -16.7386     0.0000    60.0000 </r>
       <r>   -16.5557    10.9356    62.0000 </r>
       <r>   -16.3728     0.0000    62.0000 </r>
       <r>   -16.1900     0.0000    62.0000 </r>
       <r>   -16.0071     0.0000    62.0000 </r>
       <r>   -15.8242    10.9357    64.0000 </r>
       <r>   -15.6413     0.0000    66.0000 </r>
       <r>   -15.4584     0.0000    66.0000 </r>
       <r>   -15.2755     0.0000    68.0000 </r>
       <r>   -15.0926     0.0000    70.0000 </r>
       <r>   -14.9097     0.0000    70.0000 </r>
       <r>   -14.7268    20.8894    73.8204 </r>
       <r>   -14.5440     0.0000    76.0000 </r>
       <r>   -14.3611     0.0000    76.0000 </r>
       <r>   -14.1782     0.0000    78.0000 </r>
       <r>   -13.9953    21.9707    84.0182 </r>
       <r>   -13.8124    10.8738    87.9887 </r>
       <r>   -13.6295    10.9357    92.0000 </r>
       <r>   -13.4466    10.9357    94.0000 </r>
       <r>   -13.2637    10.9357    96.0000 </r>
       <r>   -13.0809    10.7397    99.9642 </r>
       <r>   -12.8980     0.0000   100.0000 </r>
       <r>   -12.7151    10.9357   106.0000 </r>
       <r>   -12.5322    10.9357   110.0000 </r>
       <r>   -12.3493    10.9097   113.9953 </r>
       <r>   -12.1664    10.9356   116.0000 </r>
       <r>   -11.9835    10.9344   119.9998 </r>
       <r>   -11.8006     0.0000   120.0000 </r>
       <r>   -11.6177    10.9357   122.0000 </r>
       <r>   -11.4349     9.5926   123.7544 </r>
       <r>   -11.2520    10.9357   126.0000 </r>
       <r>   -11.0691     8.8463   129.6179 </r>
       <r>   -10.8862     0.0000   132.0000 </r>
       <r>   -10.7033    17.1102   135.1293 </r>
       <r>   -10.5204     0.0000   136.0000 </r>
       <r>   -10.3375     7.9358   139.4514 </r>
       <r>   -10.1546     0.0000   140.0000 </r>
       <r>    -9.9718    10.9357   144.0000 </r>
       <r>    -9.7889    10.9357   146.0000 </r>
       <r>    -9.6060    10.9375   150.0003 </r>
       <r>    -9.4231     0.0000   152.0000 </r>
       <r>    -9.2402     0.0000   154.0000 </r>
       <r>    -9.0573     0.0000   154.0000 </r>
       <r>    -8.8744    10.8560   155.9854 </r>
       <r>    -8.6915    10.1505   157.8564 </r>
       <r>    -8.5087     0.0000   158.0000 </r>
       <r>    -8.3258    10.7115   159.9590 </r>
       <r>    -8.1429     0.0000   160.0000 </r>
       <r>    -7.9600     0.0000   160.0000 </r>
       <r>    -7.7771     0.0000   160.0000 </r>
       <r>    -7.5942     0.0000   160.0000 </r>
       <r>    -7.4113     0.0000   162.0000 </r>
       <r>    -7.2284    10.9357   164.0000 </r>
       <r>    -7.0455     0.0000   166.0000 </r>
       <r>    -6.8627     0.0000   166.0000 </r>
       <r>    -6.6798     0.0000   166.0000 </r>
       <r>    -6.4969     0.0000   166.0000 </r>
       <r>    -6.3140     0.0000   166.0000 </r>
       <r>    -6.1311     0.0000   166.0000 </r>
       <r>    -5.9482     0.0000   166.0000 </r>
       <r>    -5.7653     7.6954   167.4074 </r>
       <r>    -5.5824     0.0000   168.0000 </r>
       <r>    -5.3996     0.0000   168.0000 </r>
       <r>    -5.2167     0.0000   168.0000 </r>
       <r>    -5.0338     0.0000   170.0000 </r>
       <r>    -4.8509    10.9357   172.0000 </r>
       <r>    -4.6680     0.0000   172.0000 </r>
       <r>    -4.4851     0.0000   172.0000 </r>
       <r>    -4.3022    10.9357   174.0000 </r>
       <r>    -4.1193     1.8271   174.3342 </r>
       <r>    -3.9365     0.3751   178.0686 </r>
       <r>    -3.7536     0.0000   182.0000 </r>
       <r>    -3.5707     0.0000   182.0000 </r>
       <r>    -3.3878     0.0000   184.0000 </r>
       <r>    -3.2049     0.0000   186.0000 </r>
       <r>    -3.0220     0.0000   188.0000 </r>
       <r>    -2.8391     0.0000   190.0000 </r>
       <r>    -2.6562    10.9268   191.9984 </r>
       <r>    -2.4733     0.0000   192.0000 </r>
       <r>    -2.2905     0.0000   192.0000 </r>
       <r>    -2.1076     0.0000   192.0000 </r>
       <r>    -1.9247    10.9357   194.0000 </r>
       <r>    -1.7418     0.0000   194.0000 </r>
       <r>    -1.5589    10.9357   198.0000 </r>
       <r>    -1.3760     0.0000   200.0000 </r>
       <r>    -1.1931     2.8216   202.5160 </r>
       <r>    -1.0102    20.3252   207.7172 </r>
       <r>    -0.8274     0.0000   210.0000 </r>
       <r>    -0.6445    10.9367   214.0002 </r>
       <r>    -0.4616    10.9357   218.0000 </r>
       <r>    -0.2787    16.2712   224.9758 </r>
       <r>    -0.0958    10.9357   228.0000 </r>
       <r>     0.0871    11.0200   232.0154 </r>
       <r>     0.2700    23.3475   238.2700 </r>
       <r>     0.4529    21.8702   245.9998 </r>
       <r>     0.6358    22.1535   252.0516 </r>
       <r>     0.8186     0.0000   256.0000 </r>
       <r>     1.0015     0.0000   256.0000 </r>
       <r>     1.1844     0.0000   256.0000 </r>
       <r>     1.3673     0.0000   256.0000 </r>
       <r>     1.5502     0.0000   256.0000 </r>
       <r>     1.7331     0.0000   256.0000 </r>
       <r>     1.9160     0.0000   256.0000 </r>
       <r>     2.0989     0.0000   256.0000 </r>
       <r>     2.2817     0.0000   256.0000 </r>
       <r>     2.4646     0.0000   256.0000 </r>
       <r>     2.6475     0.0000   256.0000 </r>
       <r>     2.8304     0.0000   256.0000 </r>
       <r>     3.0133     0.0000   256.0000 </r>
       <r>     3.1962     0.0000   256.0000 </r>
      </set>
      <set comment="spin 2">
       <r>   -51.6702     0.0000     0.0000 </r>
       <r>   -51.4873     0.0000     0.0000 </r>
       <r>   -51.3045     0.0000     0.0000 </r>
       <r>   -51.1216     0.0000     0.0000 </r>
       <r>   -50.9387     0.0000     0.0000 </r>
       <r>   -50.7558     0.0000     0.0000 </r>
       <r>   -50.5729     0.0000     0.0000 </r>
       <r>   -50.3900     0.0000     0.0000 </r>
       <r>   -50.2071     0.0000     0.0000 </r>
       <r>   -50.0242     0.0000     0.0000 </r>
       <r>   -49.8414     0.0000     0.0000 </r>
       <r>   -49.6585     0.0000     0.0000 </r>
       <r>   -49.4756     0.0000     0.0000 </r>
       <r>   -49.2927     0.0000     0.0000 </r>
       <r>   -49.1098    10.9357     2.0000 </r>
       <r>   -48.9269     0.0000     4.0000 </r>
       <r>   -48.7440    10.9357     6.0000 </r>
       <r>   -48.5611     0.0000     6.0000 </r>
       <r>   -48.3782     0.0000     6.0000 </r>
       <r>   -48.1954     0.0000     6.0000 </r>
       <r>   -48.0125     0.0000     6.0000 </r>
       <r>   -47.8296     0.0000     6.0000 </r>
       <r>   -47.6467     0.0000     6.0000 </r>
       <r>   -47.4638     0.0000     6.0000 </r>
       <r>   -47.2809     0.0000     6.0000 </r>
       <r>   -47.0980     0.0000     6.0000 </r>
       <r>   -46.9151     0.0000     6.0000 </r>
       <r>   -46.7323     0.0000     6.0000 </r>
       <r>   -46.5494     0.0000     6.0000 </r>
       <r>   -46.3665     0.0000     6.0000 </r>
       <r>   -46.1836     0.0000     6.0000 </r>
       <r>   -46.0007     0.0000     6.0000 </r>
       <r>   -45.8178     0.0000     6.0000 </r>
       <r>   -45.6349     0.0000     6.0000 </r>
       <r>   -45.4520     0.0000     6.0000 </r>
       <r>   -45.2692     0.0000     6.0000 </r>
       <r>   -45.0863     0.0000     6.0000 </r>
       <r>   -44.9034     0.0000     6.0000 </r>
       <r>   -44.7205     0.0000     6.0000 </r>
       <r>   -44.5376     0.0000     6.0000 </r>
       <r>   -44.3547     0.0000     6.0000 </r>
       <r>   -44.1718     0.0000     6.0000 </r>
       <r>   -43.9889     0.0000     6.0000 </r>
       <r>   -43.8060     0.0000     6.0000 </r>
       <r>   -43.6232     0.0000     6.0000 </r>
       <r>   -43.4403     0.0000     6.0000 </r>
       <r>   -43.2574     0.0000     6.0000 </r>
       <r>   -43.0745     0.0000     6.0000 </r>
       <r>   -42.8916     0.0000     6.0000 </r>
       <r>   -42.7087     0.0000     6.0000 </r>
       <r>   -42.5258     0.0000     6.0000 </r>
       <r>   -42.3429     0.0000     6.0000 </r>
       <r>   -42.1601     0.0000     6.0000 </r>
       <r>   -41.9772     0.0000     6.0000 </r>
       <r>   -41.7943     0.0000     6.0000 </r>
       <r>   -41.6114     0.0000     6.0000 </r>
       <r>   -41.4285     0.0000     6.0000 </r>
       <r>   -41.2456     0.0000     6.0000 </r>
       <r>   -41.0627     0.0000     6.0000 </r>
       <r>   -40.8798     0.0000     6.0000 </r>
       <r>   -40.6970     0.0000     6.0000 </r>
       <r>   -40.5141     0.0000     6.0000 </r>
       <r>   -40.3312     0.0000     6.0000 </r>
       <r>   -40.1483     0.0000     6.0000 </r>
       <r>   -39.9654     0.0000     6.0000 </r>
       <r>   -39.7825     0.0000     6.0000 </r>
       <r>   -39.5996     0.0000     6.0000 </r>
       <r>   -39.4167     0.0000     6.0000 </r>
       <r>   -39.2338     0.0000     6.0000 </r>
       <r>   -39.0510     0.0000     6.0000 </r>
       <r>   -38.8681     0.0000     6.0000 </r>
       <r>   -38.6852     0.0000     6.0000 </r>
       <r>   -38.5023     0.0000     6.0000 </r>
       <r>   -38.3194     0.0000     6.0000 </r>
       <r>   -38.1365     0.0000     6.0000 </r>
       <r>   -37.9536     0.0000     6.0000 </r>
       <r>   -37.7707     0.0000     6.0000 </r>
       <r>   -37.5879     0.0000     6.0000 </r>
       <r>   -37.4050     0.0000     6.0000 </r>
       <r>   -37.2221     0.0000     6.0000 </r>
       <r>   -37.0392     0.0000     6.0000 </r>
       <r>   -36.8563     0.0000     6.0000 </r>
       <r>   -36.6734     0.0000     6.0000 </r>
       <r>   -36.4905     0.0000     6.0000 </r>
       <r>   -36.3076     0.0000     6.0000 </r>
       <r>   -36.1247     0.0000     6.0000 </r>
       <r>   -35.9419     0.0000     6.0000 </r>
       <r>   -35.7590     0.0000     6.0000 </r>
       <r>   -35.5761     0.0000     6.0000 </r>
       <r>   -35.3932     0.0000     6.0000 </r>
       <r>   -35.2103     0.0000     6.0000 </r>
       <r>   -35.0274     0.0000     6.0000 </r>
       <r>   -34.8445     0.0000     6.0000 </r>
       <r>   -34.6616     0.0000     6.0000 </r>
       <r>   -34.4788     0.0000     6.0000 </r>
       <r>   -34.2959     0.0000     6.0000 </r>
       <r>   -34.1130     0.0000     6.0000 </r>
       <r>   -33.9301     0.0000     6.0000 </r>
       <r>   -33.7472     0.0000     6.0000 </r>
       <r>   -33.5643     0.0000     6.0000 </r>
       <r>   -33.3814     0.0000     6.0000 </r>
       <r>   -33.1985     0.0000     6.0000 </r>
       <r>   -33.0157     0.0000     6.0000 </r>
       <r>   -32.8328     0.0000     6.0000 </r>
       <r>   -32.6499     0.0000     6.0000 </r>
       <r>   -32.4670     0.0000     6.0000 </r>
       <r>   -32.2841     0.0000     6.0000 </r>
       <r>   -32.1012     0.0000     6.0000 </r>
       <r>   -31.9183     0.0000     6.0000 </r>
       <r>   -31.7354     0.0000     6.0000 </r>
       <r>   -31.5525     0.0000     6.0000 </r>
       <r>   -31.3697     0.0000     6.0000 </r>
       <r>   -31.1868     0.0000     6.0000 </r>
       <r>   -31.0039     0.0000     6.0000 </r>
       <r>   -30.8210     0.0000     6.0000 </r>
       <r>   -30.6381     0.0000     6.0000 </r>
       <r>   -30.4552     0.0000     6.0000 </r>
       <r>   -30.2723     0.0000     6.0000 </r>
       <r>   -30.0894     0.0000     6.0000 </r>
       <r>   -29.9066     0.0000     6.0000 </r>
       <r>   -29.7237     0.0000     6.0000 </r>
       <r>   -29.5408     0.0000     6.0000 </r>
       <r>   -29.3579     0.0000     6.0000 </r>
       <r>   -29.1750    10.9357     8.0000 </r>
       <r>   -28.9921     0.0000     8.0000 </r>
       <r>   -28.8092     0.0000     8.0000 </r>
       <r>   -28.6263     0.0000     8.0000 </r>
       <r>   -28.4435     0.0000     8.0000 </r>
       <r>   -28.2606     0.0000     8.0000 </r>
       <r>   -28.0777     0.0000     8.0000 </r>
       <r>   -27.8948     0.0000     8.0000 </r>
       <r>   -27.7119     0.0000     8.0000 </r>
       <r>   -27.5290     0.0000     8.0000 </r>
       <r>   -27.3461    10.9357    10.0000 </r>
       <r>   -27.1632     0.0000    10.0000 </r>
       <r>   -26.9803     0.0000    10.0000 </r>
       <r>   -26.7975    10.9357    12.0000 </r>
       <r>   -26.6146     0.0000    12.0000 </r>
       <r>   -26.4317     0.0000    14.0000 </r>
       <r>   -26.2488     0.0000    14.0000 </r>
       <r>   -26.0659    21.8713    18.0000 </r>
       <r>   -25.8830     0.0000    18.0000 </r>
       <r>   -25.7001     0.0000    18.0000 </r>
       <r>   -25.5172     0.0000    18.0000 </r>
       <r>   -25.3344     0.0000    18.0000 </r>
       <r>   -25.1515     0.0000    18.0000 </r>
       <r>   -24.9686     0.0000    18.0000 </r>
       <r>   -24.7857     0.0000    18.0000 </r>
       <r>   -24.6028     0.0000    18.0000 </r>
       <r>   -24.4199     0.0000    18.0000 </r>
       <r>   -24.2370     6.3181    19.1555 </r>
       <r>   -24.0541     0.0000    20.0000 </r>
       <r>   -23.8712     0.0000    20.0000 </r>
       <r>   -23.6884     0.0000    20.0000 </r>
       <r>   -23.5055     0.0000    20.0000 </r>
       <r>   -23.3226     0.0000    20.0000 </r>
       <r>   -23.1397     0.0000    20.0000 </r>
       <r>   -22.9568     0.0000    20.0000 </r>
       <r>   -22.7739     0.0000    22.0000 </r>
       <r>   -22.5910     0.0000    22.0000 </r>
       <r>   -22.4081     0.3545    24.0648 </r>
       <r>   -22.2253    10.9357    28.0000 </r>
       <r>   -22.0424     0.0000    30.0000 </r>
       <r>   -21.8595     0.0000    32.0000 </r>
       <r>   -21.6766     0.0000    32.0000 </r>
       <r>   -21.4937     0.0000    32.0000 </r>
       <r>   -21.3108    10.9357    34.0000 </r>
       <r>   -21.1279     0.0000    34.0000 </r>
       <r>   -20.9450     0.0000    36.0000 </r>
       <r>   -20.7622     6.5722    37.2020 </r>
       <r>   -20.5793     0.0000    38.0000 </r>
       <r>   -20.3964     0.0000    38.0000 </r>
       <r>   -20.2135     0.0000    38.0000 </r>
       <r>   -20.0306     0.0000    38.0000 </r>
       <r>   -19.8477     0.0000    38.0000 </r>
       <r>   -19.6648     0.0000    38.0000 </r>
       <r>   -19.4819    10.8111    39.9772 </r>
       <r>   -19.2990     0.0000    42.0000 </r>
       <r>   -19.1162     0.0000    42.0000 </r>
       <r>   -18.9333     0.0000    42.0000 </r>
       <r>   -18.7504     0.0000    42.0000 </r>
       <r>   -18.5675     0.0000    44.0000 </r>
       <r>   -18.3846    10.9356    46.0000 </r>
       <r>   -18.2017     0.0000    46.0000 </r>
       <r>   -18.0188     0.0000    48.0000 </r>
       <r>   -17.8359     0.0002    50.0000 </r>
       <r>   -17.6531     0.0000    52.0000 </r>
       <r>   -17.4702     0.0000    56.0000 </r>
       <r>   -17.2873     0.5774    56.1056 </r>
       <r>   -17.1044     0.0000    58.0000 </r>
       <r>   -16.9215     0.0000    58.0000 </r>
       <r>   -16.7386     0.0000    60.0000 </r>
       <r>   -16.5557    10.9356    62.0000 </r>
       <r>   -16.3728     0.0000    62.0000 </r>
       <r>   -16.1900     0.0000    62.0000 </r>
       <r>   -16.0071     0.0000    62.0000 </r>
       <r>   -15.8242    10.9357    64.0000 </r>
       <r>   -15.6413     0.0000    66.0000 </r>
       <r>   -15.4584     0.0000    66.0000 </r>
       <r>   -15.2755     0.0000    68.0000 </r>
       <r>   -15.0926     0.0000    70.0000 </r>
       <r>   -14.9097     0.0000    70.0000 </r>
       <r>   -14.7268    20.8893    73.8204 </r>
       <r>   -14.5440     0.0000    76.0000 </r>
       <r>   -14.3611     0.0000    76.0000 </r>
       <r>   -14.1782     0.0000    78.0000 </r>
       <r>   -13.9953    21.9708    84.0182 </r>
       <r>   -13.8124    10.8738    87.9887 </r>
       <r>   -13.6295    10.9357    92.0000 </r>
       <r>   -13.4466    10.9357    94.0000 </r>
       <r>   -13.2637    10.9357    96.0000 </r>
       <r>   -13.0809    10.7397    99.9642 </r>
       <r>   -12.8980     0.0000   100.0000 </r>
       <r>   -12.7151    10.9357   106.0000 </r>
       <r>   -12.5322    10.9357   110.0000 </r>
       <r>   -12.3493    10.9097   113.9953 </r>
       <r>   -12.1664    10.9356   116.0000 </r>
       <r>   -11.9835    10.9344   119.9998 </r>
       <r>   -11.8006     0.0000   120.0000 </r>
       <r>   -11.6177    10.9357   122.0000 </r>
       <r>   -11.4349     9.5926   123.7544 </r>
       <r>   -11.2520    10.9357   126.0000 </r>
       <r>   -11.0691     8.8463   129.6179 </r>
       <r>   -10.8862     0.0000   132.0000 </r>
       <r>   -10.7033    17.1102   135.1293 </r>
       <r>   -10.5204     0.0000   136.0000 </r>
       <r>   -10.3375     7.9357   139.4514 </r>
       <r>   -10.1546     0.0000   140.0000 </r>
       <r>    -9.9718    10.9357   144.0000 </r>
       <r>    -9.7889    10.9357   146.0000 </r>
       <r>    -9.6060    10.9375   150.0003 </r>
       <r>    -9.4231     0.0000   152.0000 </r>
       <r>    -9.2402     0.0000   154.0000 </r>
       <r>    -9.0573     0.0000   154.0000 </r>
       <r>    -8.8744    10.8560   155.9854 </r>
       <r>    -8.6915    10.1504   157.8564 </r>
       <r>    -8.5087     0.0000   158.0000 </r>
       <r>    -8.3258    10.7115   159.9590 </r>
       <r>    -8.1429     0.0000   160.0000 </r>
       <r>    -7.9600     0.0000   160.0000 </r>
       <r>    -7.7771     0.0000   160.0000 </r>
       <r>    -7.5942     0.0000   160.0000 </r>
       <r>    -7.4113     0.0000   162.0000 </r>
       <r>    -7.2284    10.9357   164.0000 </r>
       <r>    -7.0455     0.0000   166.0000 </r>
       <r>    -6.8627     0.0000   166.0000 </r>
       <r>    -6.6798     0.0000   166.0000 </r>
       <r>    -6.4969     0.0000   166.0000 </r>
       <r>    -6.3140     0.0000   166.0000 </r>
       <r>    -6.1311     0.0000   166.0000 </r>
       <r>    -5.9482     0.0000   166.0000 </r>
       <r>    -5.7653     7.6954   167.4074 </r>
       <r>    -5.5824     0.0000   168.0000 </r>
       <r>    -5.3996     0.0000   168.0000 </r>
       <r>    -5.2167     0.0000   168.0000 </r>
       <r>    -5.0338     0.0000   170.0000 </r>
       <r>    -4.8509    10.9357   172.0000 </r>
       <r>    -4.6680     0.0000   172.0000 </r>
       <r>    -4.4851     0.0000   172.0000 </r>
       <r>    -4.3022    10.9357   174.0000 </r>
       <r>    -4.1193     1.8271   174.3342 </r>
       <r>    -3.9365     0.3751   178.0686 </r>
       <r>    -3.7536     0.0000   182.0000 </r>
       <r>    -3.5707     0.0000   182.0000 </r>
       <r>    -3.3878     0.0000   184.0000 </r>
       <r>    -3.2049     0.0000   186.0000 </r>
       <r>    -3.0220     0.0000   188.0000 </r>
       <r>    -2.8391     0.0000   190.0000 </r>
       <r>    -2.6562    10.9268   191.9984 </r>
       <r>    -2.4733     0.0000   192.0000 </r>
       <r>    -2.2905     0.0000   192.0000 </r>
       <r>    -2.1076     0.0000   192.0000 </r>
       <r>    -1.9247    10.9357   194.0000 </r>
       <r>    -1.7418     0.0000   194.0000 </r>
       <r>    -1.5589    10.9357   198.0000 </r>
       <r>    -1.3760     0.0000   200.0000 </r>
       <r>    -1.1931     2.8255   202.5167 </r>
       <r>    -1.0102    20.3330   207.7187 </r>
       <r>    -0.8274     0.0000   210.0000 </r>
       <r>    -0.6445    10.9367   214.0002 </r>
       <r>    -0.4616    10.9357   218.0000 </r>
       <r>    -0.2787    16.2877   224.9788 </r>
       <r>    -0.0958    10.9357   228.0000 </r>
       <r>     0.0871    11.0211   232.0156 </r>
       <r>     0.2700    23.3555   238.2714 </r>
       <r>     0.4529    21.8702   245.9998 </r>
       <r>     0.6358    22.1637   252.0535 </r>
       <r>     0.8186     0.0000   256.0000 </r>
       <r>     1.0015     0.0000   256.0000 </r>
       <r>     1.1844     0.0000   256.0000 </r>
       <r>     1.3673     0.0000   256.0000 </r>
       <r>     1.5502     0.0000   256.0000 </r>
       <r>     1.7331     0.0000   256.0000 </r>
       <r>     1.9160     0.0000   256.0000 </r>
       <r>     2.0989     0.0000   256.0000 </r>
       <r>     2.2817     0.0000   256.0000 </r>
       <r>     2.4646     0.0000   256.0000 </r>
       <r>     2.6475     0.0000   256.0000 </r>
       <r>     2.8304     0.0000   256.0000 </r>
       <r>     3.0133     0.0000   256.0000 </r>
       <r>     3.1962     0.0000   256.0000 </r>
      </set>
     </set>
    </array>
   </total>
  </dos>
 </calculation>
 <structure name="finalpos" >
  <crystal>
   <varray name="basis" >
    <v>      20.00000000       0.00000000       0.00000000 </v>
    <v>       0.00000000      20.00000000       0.00000000 </v>
    <v>       0.00000000       0.00000000      20.00000000 </v>
   </varray>
   <i name="volume">   8000.00000000 </i>
   <varray name="rec_basis" >
    <v>       0.05000000       0.00000000       0.00000000 </v>
    <v>       0.00000000       0.05000000       0.00000000 </v>
    <v>       0.00000000       0.00000000       0.05000000 </v>
   </varray>
  </crystal>
  <varray name="positions" >
   <v>       0.73964927       0.52855915       0.53463181 </v>
   <v>       0.43793752       0.56561110       0.32757008 </v>
   <v>       0.45581208       0.52423376       0.38051465 </v>
   <v>       0.47372925       0.61530131       0.44986522 </v>
   <v>       0.45595175       0.65963312       0.39935201 </v>
   <v>       0.43785737       0.63472201       0.33675972 </v>
   <v>       0.52307882       0.32955005       0.67474498 </v>
   <v>       0.49710163       0.37190466       0.62618823 </v>
   <v>       0.60227374       0.41933300       0.60593616 </v>
   <v>       0.63096398       0.37761922       0.65422416 </v>
   <v>       0.29334713       0.47671938       0.56830116 </v>
   <v>       0.70082162       0.56612858       0.49044049 </v>
   <v>       0.63257913       0.55363620       0.48652424 </v>
   <v>       0.63952130       0.46927713       0.56732841 </v>
   <v>       0.70843899       0.47974495       0.57314689 </v>
   <v>       0.59134754       0.33224398       0.68903016 </v>
   <v>       0.36211554       0.48866484       0.56417415 </v>
   <v>       0.40790931       0.62211625       0.69058213 </v>
   <v>       0.47619960       0.62606623       0.67660612 </v>
   <v>       0.50295190       0.58590820       0.62668073 </v>
   <v>       0.39825425       0.53800137       0.60426081 </v>
   <v>       0.36904589       0.57756069       0.65398228 </v>
   <v>       0.37289802       0.40579857       0.48223443 </v>
   <v>       0.30486503       0.39173492       0.48443166 </v>
   <v>       0.26422003       0.42785518       0.52821594 </v>
   <v>       0.48989745       0.29510618       0.70074864 </v>
   <v>       0.61334240       0.29968355       0.72673159 </v>
   <v>       0.68424189       0.38076917       0.66478776 </v>
   <v>       0.54225374       0.36233861       0.46129841 </v>
   <v>       0.31579090       0.57306911       0.66420366 </v>
   <v>       0.44416348       0.37118871       0.61364770 </v>
   <v>       0.42392665       0.66833230       0.29622671 </v>
   <v>       0.45642762       0.71313270       0.40950260 </v>
   <v>       0.48809132       0.63358802       0.49907234 </v>
   <v>       0.56912778       0.41808713       0.41480476 </v>
   <v>       0.73767440       0.44963919       0.60776512 </v>
   <v>       0.72277620       0.60481012       0.45904817 </v>
   <v>       0.45570253       0.47012894       0.37468790 </v>
   <v>       0.40614333       0.37888556       0.44852541 </v>
   <v>       0.28443799       0.35306162       0.45202062 </v>
   <v>       0.79326502       0.53703787       0.53892527 </v>
   <v>       0.55589708       0.58769132       0.61440612 </v>
   <v>       0.42412006       0.54328620       0.27986105 </v>
   <v>       0.50894741       0.65984570       0.70400156 </v>
   <v>       0.26265982       0.50568523       0.60265428 </v>
   <v>       0.21072272       0.41813760       0.53105039 </v>
   <v>       0.60090654       0.58197914       0.45254259 </v>
   <v>       0.38544357       0.65296704       0.72941133 </v>
   <v>       0.47424490       0.54794204       0.44140236 </v>
   <v>       0.40180479       0.45306079       0.52108436 </v>
   <v>       0.53520702       0.41608490       0.59173240 </v>
   <v>       0.46544808       0.54254992       0.59041194 </v>
   <v>       0.60138410       0.50650621       0.52397638 </v>
   <v>       0.53073984       0.40562607       0.44215451 </v>
   <v>       0.50088568       0.48087016       0.51934246 </v>
  </varray>
  <varray name="selective"  type="logical" >
   <v type="logical" >  T  T  T </v>
   <v type="logical" >  T  T  T </v>
   <v type="logical" >  T  T  T </v>
   <v type="logical" >  T  T  T </v>
   <v type="logical" >  T  T  T </v>
   <v type="logical" >  T  T  T </v>
   <v type="logical" >  T  T  T </v>
   <v type="logical" >  T  T  T </v>
   <v type="logical" >  T  T  T </v>
   <v type="logical" >  T  T  T </v>
   <v type="logical" >  T  T  T </v>
   <v type="logical" >  T  T  T </v>
   <v type="logical" >  T  T  T </v>
   <v type="logical" >  T  T  T </v>
   <v type="logical" >  T  T  T </v>
   <v type="logical" >  T  T  T </v>
   <v type="logical" >  T  T  T </v>
   <v type="logical" >  T  T  T </v>
   <v type="logical" >  T  T  T </v>
   <v type="logical" >  T  T  T </v>
   <v type="logical" >  T  T  T </v>
   <v type="logical" >  T  T  T </v>
   <v type="logical" >  T  T  T </v>
   <v type="logical" >  T  T  T </v>
   <v type="logical" >  T  T  T </v>
   <v type="logical" >  T  T  T </v>
   <v type="logical" >  T  T  T </v>
   <v type="logical" >  T  T  T </v>
   <v type="logical" >  T  T  T </v>
   <v type="logical" >  T  T  T </v>
   <v type="logical" >  T  T  T </v>
   <v type="logical" >  T  T  T </v>
   <v type="logical" >  T  T  T </v>
   <v type="logical" >  T  T  T </v>
   <v type="logical" >  T  T  T </v>
   <v type="logical" >  T  T  T </v>
   <v type="logical" >  T  T  T </v>
   <v type="logical" >  T  T  T </v>
   <v type="logical" >  T  T  T </v>
   <v type="logical" >  T  T  T </v>
   <v type="logical" >  T  T  T </v>
   <v type="logical" >  T  T  T </v>
   <v type="logical" >  T  T  T </v>
   <v type="logical" >  T  T  T </v>
   <v type="logical" >  T  T  T </v>
   <v type="logical" >  T  T  T </v>
   <v type="logical" >  T  T  T </v>
   <v type="logical" >  T  T  T </v>
   <v type="logical" >  T  T  T </v>
   <v type="logical" >  T  T  T </v>
   <v type="logical" >  T  T  T </v>
   <v type="logical" >  T  T  T </v>
   <v type="logical" >  T  T  T </v>
   <v type="logical" >  T  T  T </v>
   <v type="logical" >  T  T  T </v>
  </varray>
  <nose>
   <v>      -3.00000000       0.00000000       0.00010000       0.00010000 </v>
  </nose>
 </structure>
</modeling>
