  55  55   0   0
  0.1454545E+03  0.2000000E-08  0.2000000E-08  0.2000000E-08  0.5000000E-15
  1.000000000000000E-004
  CAR 
 c2_oh2_ruthenium_mol                    
      3.16166914    -51.57269626  301     -7.00980043      1.00000000
    -51.573  0.0000E+00  0.0000E+00  0.0000E+00  0.0000E+00
    -51.390  0.0000E+00  0.0000E+00  0.0000E+00  0.0000E+00
    -51.208  0.0000E+00  0.0000E+00  0.0000E+00  0.0000E+00
    -51.025  0.0000E+00  0.0000E+00  0.0000E+00  0.0000E+00
    -50.843  0.0000E+00  0.0000E+00  0.0000E+00  0.0000E+00
    -50.660  0.0000E+00  0.0000E+00  0.0000E+00  0.0000E+00
    -50.478  0.0000E+00  0.0000E+00  0.0000E+00  0.0000E+00
    -50.296  0.0000E+00  0.0000E+00  0.0000E+00  0.0000E+00
    -50.113  0.0000E+00  0.0000E+00  0.0000E+00  0.0000E+00
    -49.931  0.0000E+00  0.0000E+00  0.0000E+00  0.0000E+00
    -49.748  0.0000E+00  0.0000E+00  0.0000E+00  0.0000E+00
    -49.566  0.0000E+00  0.0000E+00  0.0000E+00  0.0000E+00
    -49.383  0.0000E+00  0.0000E+00  0.0000E+00  0.0000E+00
    -49.201  0.0000E+00  0.0000E+00  0.0000E+00  0.0000E+00
    -49.018  0.1096E+02  0.1096E+02  0.2000E+01  0.2000E+01
    -48.836  0.0000E+00  0.0000E+00  0.4000E+01  0.4000E+01
    -48.654  0.1096E+02  0.1096E+02  0.6000E+01  0.6000E+01
    -48.471  0.0000E+00  0.0000E+00  0.6000E+01  0.6000E+01
    -48.289  0.0000E+00  0.0000E+00  0.6000E+01  0.6000E+01
    -48.106  0.0000E+00  0.0000E+00  0.6000E+01  0.6000E+01
    -47.924  0.0000E+00  0.0000E+00  0.6000E+01  0.6000E+01
    -47.741  0.0000E+00  0.0000E+00  0.6000E+01  0.6000E+01
    -47.559  0.0000E+00  0.0000E+00  0.6000E+01  0.6000E+01
    -47.376  0.0000E+00  0.0000E+00  0.6000E+01  0.6000E+01
    -47.194  0.0000E+00  0.0000E+00  0.6000E+01  0.6000E+01
    -47.011  0.0000E+00  0.0000E+00  0.6000E+01  0.6000E+01
    -46.829  0.0000E+00  0.0000E+00  0.6000E+01  0.6000E+01
    -46.647  0.0000E+00  0.0000E+00  0.6000E+01  0.6000E+01
    -46.464  0.0000E+00  0.0000E+00  0.6000E+01  0.6000E+01
    -46.282  0.0000E+00  0.0000E+00  0.6000E+01  0.6000E+01
    -46.099  0.0000E+00  0.0000E+00  0.6000E+01  0.6000E+01
    -45.917  0.0000E+00  0.0000E+00  0.6000E+01  0.6000E+01
    -45.734  0.0000E+00  0.0000E+00  0.6000E+01  0.6000E+01
    -45.552  0.0000E+00  0.0000E+00  0.6000E+01  0.6000E+01
    -45.369  0.0000E+00  0.0000E+00  0.6000E+01  0.6000E+01
    -45.187  0.0000E+00  0.0000E+00  0.6000E+01  0.6000E+01
    -45.005  0.0000E+00  0.0000E+00  0.6000E+01  0.6000E+01
    -44.822  0.0000E+00  0.0000E+00  0.6000E+01  0.6000E+01
    -44.640  0.0000E+00  0.0000E+00  0.6000E+01  0.6000E+01
    -44.457  0.0000E+00  0.0000E+00  0.6000E+01  0.6000E+01
    -44.275  0.0000E+00  0.0000E+00  0.6000E+01  0.6000E+01
    -44.092  0.0000E+00  0.0000E+00  0.6000E+01  0.6000E+01
    -43.910  0.0000E+00  0.0000E+00  0.6000E+01  0.6000E+01
    -43.727  0.0000E+00  0.0000E+00  0.6000E+01  0.6000E+01
    -43.545  0.0000E+00  0.0000E+00  0.6000E+01  0.6000E+01
    -43.363  0.0000E+00  0.0000E+00  0.6000E+01  0.6000E+01
    -43.180  0.0000E+00  0.0000E+00  0.6000E+01  0.6000E+01
    -42.998  0.0000E+00  0.0000E+00  0.6000E+01  0.6000E+01
    -42.815  0.0000E+00  0.0000E+00  0.6000E+01  0.6000E+01
    -42.633  0.0000E+00  0.0000E+00  0.6000E+01  0.6000E+01
    -42.450  0.0000E+00  0.0000E+00  0.6000E+01  0.6000E+01
    -42.268  0.0000E+00  0.0000E+00  0.6000E+01  0.6000E+01
    -42.085  0.0000E+00  0.0000E+00  0.6000E+01  0.6000E+01
    -41.903  0.0000E+00  0.0000E+00  0.6000E+01  0.6000E+01
    -41.721  0.0000E+00  0.0000E+00  0.6000E+01  0.6000E+01
    -41.538  0.0000E+00  0.0000E+00  0.6000E+01  0.6000E+01
    -41.356  0.0000E+00  0.0000E+00  0.6000E+01  0.6000E+01
    -41.173  0.0000E+00  0.0000E+00  0.6000E+01  0.6000E+01
    -40.991  0.0000E+00  0.0000E+00  0.6000E+01  0.6000E+01
    -40.808  0.0000E+00  0.0000E+00  0.6000E+01  0.6000E+01
    -40.626  0.0000E+00  0.0000E+00  0.6000E+01  0.6000E+01
    -40.443  0.0000E+00  0.0000E+00  0.6000E+01  0.6000E+01
    -40.261  0.0000E+00  0.0000E+00  0.6000E+01  0.6000E+01
    -40.078  0.0000E+00  0.0000E+00  0.6000E+01  0.6000E+01
    -39.896  0.0000E+00  0.0000E+00  0.6000E+01  0.6000E+01
    -39.714  0.0000E+00  0.0000E+00  0.6000E+01  0.6000E+01
    -39.531  0.0000E+00  0.0000E+00  0.6000E+01  0.6000E+01
    -39.349  0.0000E+00  0.0000E+00  0.6000E+01  0.6000E+01
    -39.166  0.0000E+00  0.0000E+00  0.6000E+01  0.6000E+01
    -38.984  0.0000E+00  0.0000E+00  0.6000E+01  0.6000E+01
    -38.801  0.0000E+00  0.0000E+00  0.6000E+01  0.6000E+01
    -38.619  0.0000E+00  0.0000E+00  0.6000E+01  0.6000E+01
    -38.436  0.0000E+00  0.0000E+00  0.6000E+01  0.6000E+01
    -38.254  0.0000E+00  0.0000E+00  0.6000E+01  0.6000E+01
    -38.072  0.0000E+00  0.0000E+00  0.6000E+01  0.6000E+01
    -37.889  0.0000E+00  0.0000E+00  0.6000E+01  0.6000E+01
    -37.707  0.0000E+00  0.0000E+00  0.6000E+01  0.6000E+01
    -37.524  0.0000E+00  0.0000E+00  0.6000E+01  0.6000E+01
    -37.342  0.0000E+00  0.0000E+00  0.6000E+01  0.6000E+01
    -37.159  0.0000E+00  0.0000E+00  0.6000E+01  0.6000E+01
    -36.977  0.0000E+00  0.0000E+00  0.6000E+01  0.6000E+01
    -36.794  0.0000E+00  0.0000E+00  0.6000E+01  0.6000E+01
    -36.612  0.0000E+00  0.0000E+00  0.6000E+01  0.6000E+01
    -36.430  0.0000E+00  0.0000E+00  0.6000E+01  0.6000E+01
    -36.247  0.0000E+00  0.0000E+00  0.6000E+01  0.6000E+01
    -36.065  0.0000E+00  0.0000E+00  0.6000E+01  0.6000E+01
    -35.882  0.0000E+00  0.0000E+00  0.6000E+01  0.6000E+01
    -35.700  0.0000E+00  0.0000E+00  0.6000E+01  0.6000E+01
    -35.517  0.0000E+00  0.0000E+00  0.6000E+01  0.6000E+01
    -35.335  0.0000E+00  0.0000E+00  0.6000E+01  0.6000E+01
    -35.152  0.0000E+00  0.0000E+00  0.6000E+01  0.6000E+01
    -34.970  0.0000E+00  0.0000E+00  0.6000E+01  0.6000E+01
    -34.787  0.0000E+00  0.0000E+00  0.6000E+01  0.6000E+01
    -34.605  0.0000E+00  0.0000E+00  0.6000E+01  0.6000E+01
    -34.423  0.0000E+00  0.0000E+00  0.6000E+01  0.6000E+01
    -34.240  0.0000E+00  0.0000E+00  0.6000E+01  0.6000E+01
    -34.058  0.0000E+00  0.0000E+00  0.6000E+01  0.6000E+01
    -33.875  0.0000E+00  0.0000E+00  0.6000E+01  0.6000E+01
    -33.693  0.0000E+00  0.0000E+00  0.6000E+01  0.6000E+01
    -33.510  0.0000E+00  0.0000E+00  0.6000E+01  0.6000E+01
    -33.328  0.0000E+00  0.0000E+00  0.6000E+01  0.6000E+01
    -33.145  0.0000E+00  0.0000E+00  0.6000E+01  0.6000E+01
    -32.963  0.0000E+00  0.0000E+00  0.6000E+01  0.6000E+01
    -32.781  0.0000E+00  0.0000E+00  0.6000E+01  0.6000E+01
    -32.598  0.0000E+00  0.0000E+00  0.6000E+01  0.6000E+01
    -32.416  0.0000E+00  0.0000E+00  0.6000E+01  0.6000E+01
    -32.233  0.0000E+00  0.0000E+00  0.6000E+01  0.6000E+01
    -32.051  0.0000E+00  0.0000E+00  0.6000E+01  0.6000E+01
    -31.868  0.0000E+00  0.0000E+00  0.6000E+01  0.6000E+01
    -31.686  0.0000E+00  0.0000E+00  0.6000E+01  0.6000E+01
    -31.503  0.0000E+00  0.0000E+00  0.6000E+01  0.6000E+01
    -31.321  0.0000E+00  0.0000E+00  0.6000E+01  0.6000E+01
    -31.139  0.0000E+00  0.0000E+00  0.6000E+01  0.6000E+01
    -30.956  0.0000E+00  0.0000E+00  0.6000E+01  0.6000E+01
    -30.774  0.0000E+00  0.0000E+00  0.6000E+01  0.6000E+01
    -30.591  0.0000E+00  0.0000E+00  0.6000E+01  0.6000E+01
    -30.409  0.0000E+00  0.0000E+00  0.6000E+01  0.6000E+01
    -30.226  0.0000E+00  0.0000E+00  0.6000E+01  0.6000E+01
    -30.044  0.0000E+00  0.0000E+00  0.6000E+01  0.6000E+01
    -29.861  0.0000E+00  0.0000E+00  0.6000E+01  0.6000E+01
    -29.679  0.0000E+00  0.0000E+00  0.6000E+01  0.6000E+01
    -29.497  0.0000E+00  0.0000E+00  0.6000E+01  0.6000E+01
    -29.314  0.0000E+00  0.0000E+00  0.6000E+01  0.6000E+01
    -29.132  0.9851E+01  0.9851E+01  0.7797E+01  0.7797E+01
    -28.949  0.0000E+00  0.0000E+00  0.8000E+01  0.8000E+01
    -28.767  0.0000E+00  0.0000E+00  0.8000E+01  0.8000E+01
    -28.584  0.0000E+00  0.0000E+00  0.8000E+01  0.8000E+01
    -28.402  0.0000E+00  0.0000E+00  0.8000E+01  0.8000E+01
    -28.219  0.0000E+00  0.0000E+00  0.8000E+01  0.8000E+01
    -28.037  0.0000E+00  0.0000E+00  0.8000E+01  0.8000E+01
    -27.854  0.0000E+00  0.0000E+00  0.8000E+01  0.8000E+01
    -27.672  0.0000E+00  0.0000E+00  0.8000E+01  0.8000E+01
    -27.490  0.1096E+02  0.1096E+02  0.1000E+02  0.1000E+02
    -27.307  0.0000E+00  0.0000E+00  0.1000E+02  0.1000E+02
    -27.125  0.0000E+00  0.0000E+00  0.1000E+02  0.1000E+02
    -26.942  0.0000E+00  0.0000E+00  0.1000E+02  0.1000E+02
    -26.760  0.1096E+02  0.1096E+02  0.1200E+02  0.1200E+02
    -26.577  0.1096E+02  0.1096E+02  0.1400E+02  0.1400E+02
    -26.395  0.0000E+00  0.0000E+00  0.1400E+02  0.1400E+02
    -26.212  0.3078E-04  0.3078E-04  0.1400E+02  0.1400E+02
    -26.030  0.0000E+00  0.0000E+00  0.1800E+02  0.1800E+02
    -25.848  0.0000E+00  0.0000E+00  0.1800E+02  0.1800E+02
    -25.665  0.0000E+00  0.0000E+00  0.1800E+02  0.1800E+02
    -25.483  0.0000E+00  0.0000E+00  0.1800E+02  0.1800E+02
    -25.300  0.0000E+00  0.0000E+00  0.1800E+02  0.1800E+02
    -25.118  0.0000E+00  0.0000E+00  0.1800E+02  0.1800E+02
    -24.935  0.0000E+00  0.0000E+00  0.1800E+02  0.1800E+02
    -24.753  0.0000E+00  0.0000E+00  0.1800E+02  0.1800E+02
    -24.570  0.0000E+00  0.0000E+00  0.1800E+02  0.1800E+02
    -24.388  0.0000E+00  0.0000E+00  0.1800E+02  0.1800E+02
    -24.206  0.0000E+00  0.0000E+00  0.1800E+02  0.1800E+02
    -24.023  0.1096E+02  0.1096E+02  0.2000E+02  0.2000E+02
    -23.841  0.0000E+00  0.0000E+00  0.2000E+02  0.2000E+02
    -23.658  0.0000E+00  0.0000E+00  0.2000E+02  0.2000E+02
    -23.476  0.0000E+00  0.0000E+00  0.2000E+02  0.2000E+02
    -23.293  0.0000E+00  0.0000E+00  0.2000E+02  0.2000E+02
    -23.111  0.0000E+00  0.0000E+00  0.2000E+02  0.2000E+02
    -22.928  0.0000E+00  0.0000E+00  0.2200E+02  0.2200E+02
    -22.746  0.0000E+00  0.0000E+00  0.2200E+02  0.2200E+02
    -22.563  0.1096E+02  0.1096E+02  0.2400E+02  0.2400E+02
    -22.381  0.1096E+02  0.1096E+02  0.2600E+02  0.2600E+02
    -22.199  0.8602E+00  0.8602E+00  0.2816E+02  0.2816E+02
    -22.016  0.1096E+02  0.1096E+02  0.3200E+02  0.3200E+02
    -21.834  0.0000E+00  0.0000E+00  0.3200E+02  0.3200E+02
    -21.651  0.0000E+00  0.0000E+00  0.3200E+02  0.3200E+02
    -21.469  0.1096E+02  0.1096E+02  0.3400E+02  0.3400E+02
    -21.286  0.0000E+00  0.0000E+00  0.3400E+02  0.3400E+02
    -21.104  0.1096E+02  0.1096E+02  0.3600E+02  0.3600E+02
    -20.921  0.0000E+00  0.0000E+00  0.3600E+02  0.3600E+02
    -20.739  0.1096E+02  0.1096E+02  0.3800E+02  0.3800E+02
    -20.557  0.0000E+00  0.0000E+00  0.3800E+02  0.3800E+02
    -20.374  0.0000E+00  0.0000E+00  0.3800E+02  0.3800E+02
    -20.192  0.0000E+00  0.0000E+00  0.3800E+02  0.3800E+02
    -20.009  0.0000E+00  0.0000E+00  0.3800E+02  0.3800E+02
    -19.827  0.0000E+00  0.0000E+00  0.3800E+02  0.3800E+02
    -19.644  0.4255E-07  0.4255E-07  0.3800E+02  0.3800E+02
    -19.462  0.0000E+00  0.0000E+00  0.4000E+02  0.4000E+02
    -19.279  0.1096E+02  0.1096E+02  0.4200E+02  0.4200E+02
    -19.097  0.0000E+00  0.0000E+00  0.4200E+02  0.4200E+02
    -18.915  0.0000E+00  0.0000E+00  0.4200E+02  0.4200E+02
    -18.732  0.3198E-05  0.3198E-05  0.4200E+02  0.4200E+02
    -18.550  0.0000E+00  0.0000E+00  0.4400E+02  0.4400E+02
    -18.367  0.1096E+02  0.1096E+02  0.4600E+02  0.4600E+02
    -18.185  0.1096E+02  0.1096E+02  0.4800E+02  0.4800E+02
    -18.002  0.1080E+02  0.1080E+02  0.4997E+02  0.4997E+02
    -17.820  0.1096E+02  0.1096E+02  0.5200E+02  0.5200E+02
    -17.637  0.9643E+01  0.9643E+01  0.5376E+02  0.5376E+02
    -17.455  0.0000E+00  0.0000E+00  0.5600E+02  0.5600E+02
    -17.272  0.1026E+02  0.1026E+02  0.5787E+02  0.5787E+02
    -17.090  0.0000E+00  0.0000E+00  0.5800E+02  0.5800E+02
    -16.908  0.0000E+00  0.0000E+00  0.5800E+02  0.5800E+02
    -16.725  0.0000E+00  0.0000E+00  0.6000E+02  0.6000E+02
    -16.543  0.0000E+00  0.0000E+00  0.6200E+02  0.6200E+02
    -16.360  0.0000E+00  0.0000E+00  0.6200E+02  0.6200E+02
    -16.178  0.0000E+00  0.0000E+00  0.6200E+02  0.6200E+02
    -15.995  0.0000E+00  0.0000E+00  0.6200E+02  0.6200E+02
    -15.813  0.1096E+02  0.1096E+02  0.6400E+02  0.6400E+02
    -15.630  0.0000E+00  0.0000E+00  0.6600E+02  0.6600E+02
    -15.448  0.1096E+02  0.1096E+02  0.6800E+02  0.6800E+02
    -15.266  0.9022E+01  0.9022E+01  0.6965E+02  0.6965E+02
    -15.083  0.0000E+00  0.0000E+00  0.7000E+02  0.7000E+02
    -14.901  0.7431E-06  0.7431E-06  0.7000E+02  0.7000E+02
    -14.718  0.1096E+02  0.1096E+02  0.7400E+02  0.7400E+02
    -14.536  0.2769E-12  0.2769E-12  0.7600E+02  0.7600E+02
    -14.353  0.0000E+00  0.0000E+00  0.7800E+02  0.7800E+02
    -14.171  0.4308E-11  0.4308E-11  0.7800E+02  0.7800E+02
    -13.988  0.2192E+02  0.2192E+02  0.8400E+02  0.8400E+02
    -13.806  0.1087E+02  0.1087E+02  0.8798E+02  0.8798E+02
    -13.624  0.1118E-03  0.1118E-03  0.9000E+02  0.9000E+02
    -13.441  0.1031E+02  0.1031E+02  0.9388E+02  0.9388E+02
    -13.259  0.4969E-04  0.4969E-04  0.9600E+02  0.9600E+02
    -13.076  0.1096E+02  0.1096E+02  0.1000E+03  0.1000E+03
    -12.894  0.8709E+01  0.8709E+01  0.1016E+03  0.1016E+03
    -12.711  0.1457E+02  0.1457E+02  0.1067E+03  0.1067E+03
    -12.529  0.6805E+01  0.6805E+01  0.1092E+03  0.1092E+03
    -12.346  0.1985E-03  0.1985E-03  0.1120E+03  0.1120E+03
    -12.164  0.1096E+02  0.1096E+02  0.1180E+03  0.1180E+03
    -11.982  0.1096E+02  0.1096E+02  0.1200E+03  0.1200E+03
    -11.799  0.0000E+00  0.0000E+00  0.1200E+03  0.1200E+03
    -11.617  0.0000E+00  0.0000E+00  0.1200E+03  0.1200E+03
    -11.434  0.1763E+00  0.1763E+00  0.1220E+03  0.1220E+03
    -11.252  0.0000E+00  0.0000E+00  0.1260E+03  0.1260E+03
    -11.069  0.2177E+02  0.2177E+02  0.1300E+03  0.1300E+03
    -10.887  0.0000E+00  0.0000E+00  0.1320E+03  0.1320E+03
    -10.704  0.2165E+02  0.2165E+02  0.1360E+03  0.1360E+03
    -10.522  0.1096E+02  0.1096E+02  0.1380E+03  0.1380E+03
    -10.339  0.1096E+02  0.1096E+02  0.1400E+03  0.1400E+03
    -10.157  0.1651E+00  0.1651E+00  0.1400E+03  0.1400E+03
     -9.975  0.0000E+00  0.0000E+00  0.1440E+03  0.1440E+03
     -9.792  0.1040E+02  0.1040E+02  0.1459E+03  0.1459E+03
     -9.610  0.4013E-04  0.4013E-04  0.1500E+03  0.1500E+03
     -9.427  0.1096E+02  0.1096E+02  0.1540E+03  0.1540E+03
     -9.245  0.0000E+00  0.0000E+00  0.1540E+03  0.1540E+03
     -9.062  0.2452E+00  0.2452E+00  0.1540E+03  0.1540E+03
     -8.880  0.0000E+00  0.0000E+00  0.1560E+03  0.1560E+03
     -8.697  0.1096E+02  0.1096E+02  0.1580E+03  0.1580E+03
     -8.515  0.0000E+00  0.0000E+00  0.1580E+03  0.1580E+03
     -8.333  0.1096E+02  0.1096E+02  0.1600E+03  0.1600E+03
     -8.150  0.0000E+00  0.0000E+00  0.1600E+03  0.1600E+03
     -7.968  0.0000E+00  0.0000E+00  0.1600E+03  0.1600E+03
     -7.785  0.0000E+00  0.0000E+00  0.1600E+03  0.1600E+03
     -7.603  0.0000E+00  0.0000E+00  0.1600E+03  0.1600E+03
     -7.420  0.3084E+00  0.3084E+00  0.1601E+03  0.1601E+03
     -7.238  0.1096E+02  0.1096E+02  0.1640E+03  0.1640E+03
     -7.055  0.1096E+02  0.1096E+02  0.1660E+03  0.1660E+03
     -6.873  0.0000E+00  0.0000E+00  0.1660E+03  0.1660E+03
     -6.691  0.0000E+00  0.0000E+00  0.1660E+03  0.1660E+03
     -6.508  0.0000E+00  0.0000E+00  0.1660E+03  0.1660E+03
     -6.326  0.0000E+00  0.0000E+00  0.1660E+03  0.1660E+03
     -6.143  0.0000E+00  0.0000E+00  0.1660E+03  0.1660E+03
     -5.961  0.0000E+00  0.0000E+00  0.1660E+03  0.1660E+03
     -5.778  0.0000E+00  0.0000E+00  0.1660E+03  0.1660E+03
     -5.596  0.1096E+02  0.1096E+02  0.1680E+03  0.1680E+03
     -5.413  0.0000E+00  0.0000E+00  0.1680E+03  0.1680E+03
     -5.231  0.1267E+01  0.1267E+01  0.1682E+03  0.1682E+03
     -5.048  0.5963E-13  0.5963E-13  0.1700E+03  0.1700E+03
     -4.866  0.0000E+00  0.0000E+00  0.1720E+03  0.1720E+03
     -4.684  0.0000E+00  0.0000E+00  0.1720E+03  0.1720E+03
     -4.501  0.0000E+00  0.0000E+00  0.1720E+03  0.1720E+03
     -4.319  0.0000E+00  0.0000E+00  0.1740E+03  0.1740E+03
     -4.136  0.5315E+01  0.5315E+01  0.1750E+03  0.1750E+03
     -3.954  0.9680E+01  0.9680E+01  0.1798E+03  0.1798E+03
     -3.771  0.1096E+02  0.1096E+02  0.1820E+03  0.1820E+03
     -3.589  0.0000E+00  0.0000E+00  0.1820E+03  0.1820E+03
     -3.406  0.0000E+00  0.0000E+00  0.1840E+03  0.1840E+03
     -3.224  0.1096E+02  0.1096E+02  0.1860E+03  0.1860E+03
     -3.042  0.0000E+00  0.0000E+00  0.1880E+03  0.1880E+03
     -2.859  0.1407E-04  0.1407E-04  0.1880E+03  0.1880E+03
     -2.677  0.1096E+02  0.1096E+02  0.1920E+03  0.1920E+03
     -2.494  0.0000E+00  0.0000E+00  0.1920E+03  0.1920E+03
     -2.312  0.0000E+00  0.0000E+00  0.1920E+03  0.1920E+03
     -2.129  0.1228E-01  0.1228E-01  0.1920E+03  0.1920E+03
     -1.947  0.0000E+00  0.0000E+00  0.1940E+03  0.1940E+03
     -1.764  0.0000E+00  0.0000E+00  0.1940E+03  0.1940E+03
     -1.582  0.1099E+02  0.1099E+02  0.1960E+03  0.1960E+03
     -1.400  0.0000E+00  0.0000E+00  0.2000E+03  0.2000E+03
     -1.217  0.1096E+02  0.1096E+02  0.2020E+03  0.2020E+03
     -1.035  0.3864E-03  0.3863E-03  0.2060E+03  0.2060E+03
     -0.852  0.1207E+01  0.1207E+01  0.2082E+03  0.2082E+03
     -0.670  0.1090E+02  0.1090E+02  0.2140E+03  0.2140E+03
     -0.487  0.2192E+02  0.2192E+02  0.2200E+03  0.2200E+03
     -0.305  0.1096E+02  0.1096E+02  0.2240E+03  0.2240E+03
     -0.122  0.1096E+02  0.1096E+02  0.2280E+03  0.2280E+03
      0.060  0.1014E+02  0.1014E+02  0.2318E+03  0.2318E+03
      0.243  0.1096E+02  0.1096E+02  0.2380E+03  0.2380E+03
      0.425  0.2715E+02  0.2715E+02  0.2470E+03  0.2470E+03
      0.607  0.1618E+02  0.1618E+02  0.2510E+03  0.2510E+03
      0.790  0.0000E+00  0.0000E+00  0.2560E+03  0.2560E+03
      0.972  0.0000E+00  0.0000E+00  0.2560E+03  0.2560E+03
      1.155  0.0000E+00  0.0000E+00  0.2560E+03  0.2560E+03
      1.337  0.0000E+00  0.0000E+00  0.2560E+03  0.2560E+03
      1.520  0.0000E+00  0.0000E+00  0.2560E+03  0.2560E+03
      1.702  0.0000E+00  0.0000E+00  0.2560E+03  0.2560E+03
      1.885  0.0000E+00  0.0000E+00  0.2560E+03  0.2560E+03
      2.067  0.0000E+00  0.0000E+00  0.2560E+03  0.2560E+03
      2.249  0.0000E+00  0.0000E+00  0.2560E+03  0.2560E+03
      2.432  0.0000E+00  0.0000E+00  0.2560E+03  0.2560E+03
      2.614  0.0000E+00  0.0000E+00  0.2560E+03  0.2560E+03
      2.797  0.0000E+00  0.0000E+00  0.2560E+03  0.2560E+03
      2.979  0.0000E+00  0.0000E+00  0.2560E+03  0.2560E+03
      3.162  0.0000E+00  0.0000E+00  0.2560E+03  0.2560E+03
