   55   55    1    2
  0.1454545E+03  0.2000000E-08  0.2000000E-08  0.2000000E-08  0.5000000E-15
  1.000000000000000E-004
  CAR 
 c2_oh2_ruthenium_mol                    
    166      1    128
 
  0.0000000E+00  0.0000000E+00  0.0000000E+00  0.1000000E+01
    1      -49.084771    -49.084770
    2      -48.939038    -48.939038
    3      -48.726026    -48.726025
    4      -29.140612    -29.140613
    5      -27.557379    -27.557379
    6      -26.812673    -26.812673
    7      -26.644993    -26.644993
    8      -26.180335    -26.180335
    9      -26.115366    -26.115366
   10      -24.064657    -24.064657
   11      -23.024653    -23.024653
   12      -22.621525    -22.621525
   13      -22.413923    -22.413923
   14      -22.289011    -22.289011
   15      -22.188578    -22.188578
   16      -22.053047    -22.053047
   17      -21.521337    -21.521337
   18      -21.127916    -21.127916
   19      -20.775371    -20.775371
   20      -19.603492    -19.603492
   21      -19.328159    -19.328159
   22      -18.696746    -18.696746
   23      -18.433543    -18.433543
   24      -18.245673    -18.245673
   25      -18.017743    -18.017743
   26      -17.846239    -17.846239
   27      -17.645686    -17.645686
   28      -17.583098    -17.583098
   29      -17.283254    -17.283254
   30      -16.817170    -16.817170
   31      -16.654864    -16.654864
   32      -15.838047    -15.838047
   33      -15.715818    -15.715818
   34      -15.472093    -15.472093
   35      -15.272123    -15.272123
   36      -14.863399    -14.863399
   37      -14.742796    -14.742796
   38      -14.674779    -14.674779
   39      -14.482526    -14.482526
   40      -14.120226    -14.120226
   41      -14.066488    -14.066488
   42      -14.054928    -14.054928
   43      -13.887559    -13.887559
   44      -13.822884    -13.822884
   45      -13.771243    -13.771243
   46      -13.593410    -13.593410
   47      -13.452132    -13.452132
   48      -13.369441    -13.369441
   49      -13.227257    -13.227257
   50      -13.153805    -13.153805
   51      -12.899557    -12.899557
   52      -12.834308    -12.834308
   53      -12.789933    -12.789933
   54      -12.708166    -12.708166
   55      -12.531023    -12.531023
   56      -12.437169    -12.437169
   57      -12.317195    -12.317195
   58      -12.250768    -12.250768
   59      -12.197390    -12.197390
   60      -12.049089    -12.049089
   61      -11.529022    -11.529022
   62      -11.419014    -11.419014
   63      -11.349028    -11.349028
   64      -11.147724    -11.147724
   65      -11.084711    -11.084711
   66      -11.045722    -11.045722
   67      -10.767639    -10.767639
   68      -10.718265    -10.718265
   69      -10.566715    -10.566715
   70      -10.403240    -10.403240
   71      -10.141692    -10.141692
   72      -10.075005    -10.075005
   73       -9.803654     -9.803654
   74       -9.738163     -9.738163
   75       -9.700830     -9.700830
   76       -9.577975     -9.577975
   77       -9.480913     -9.480913
   78       -9.048146     -9.048146
   79       -8.754571     -8.754571
   80       -8.370839     -8.370839
   81       -7.406810     -7.406810
   82       -7.274891     -7.274891
   83       -7.130293     -7.130293
   84       -5.627756     -5.627756
   85       -5.222467     -5.222467
   86       -4.993836     -4.993836
   87       -4.411192     -4.411192
   88       -4.135974     -4.135974
   89       -4.111620     -4.111620
   90       -3.962216     -3.962216
   91       -3.840782     -3.840782
   92       -3.502415     -3.502415
   93       -3.271968     -3.271968
   94       -3.148011     -3.148010
   95       -2.825858     -2.825858
   96       -2.719525     -2.719525
   97       -2.107707     -2.107708
   98       -1.644717     -1.644716
   99       -1.561962     -1.561961
  100       -1.482415     -1.482415
  101       -1.277338     -1.277338
  102       -1.191217     -1.191217
  103       -1.160369     -1.160370
  104       -1.006528     -1.006527
  105       -0.843516     -0.843515
  106       -0.791657     -0.791657
  107       -0.687547     -0.687547
  108       -0.582046     -0.582046
  109       -0.536305     -0.536305
  110       -0.516128     -0.516128
  111       -0.420395     -0.420395
  112       -0.380753     -0.380753
  113       -0.216635     -0.216634
  114       -0.170069     -0.170070
  115       -0.069793     -0.069792
  116        0.049881      0.049882
  117        0.114234      0.114234
  118        0.127445      0.127445
  119        0.182017      0.182018
  120        0.284665      0.284667
  121        0.321016      0.321015
  122        0.362209      0.362210
  123        0.368605      0.368605
  124        0.425356      0.425356
  125        0.529975      0.529974
  126        0.607822      0.607826
  127        0.657333      0.657343
  128        0.673731      0.673743
