       N       E                     dE             d eps       ncg     rms          rms(c)
DAV:   1     0.909408544130E+03    0.90941E+03   -0.58811E+04   768   0.974E+02
DAV:   2    -0.682163674103E+02   -0.97762E+03   -0.97094E+03  1024   0.160E+02
DAV:   3    -0.393179656254E+03   -0.32496E+03   -0.32452E+03   832   0.851E+01
DAV:   4    -0.412353669455E+03   -0.19174E+02   -0.19151E+02   704   0.258E+01
DAV:   5    -0.412585454139E+03   -0.23178E+00   -0.23170E+00   896   0.303E+00    0.576E+01
DAV:   6    -0.394061119981E+03    0.18524E+02   -0.38234E+02   512   0.239E+01    0.392E+01
DAV:   7    -0.383204568280E+03    0.10857E+02   -0.24138E+01   768   0.214E+01    0.239E+01
DAV:   8    -0.378866039135E+03    0.43385E+01   -0.17413E+01   768   0.102E+01    0.979E+00
DAV:   9    -0.377647906798E+03    0.12181E+01   -0.47869E+00   768   0.472E+00    0.365E+00
DAV:  10    -0.377601040982E+03    0.46866E-01   -0.45479E-01   768   0.160E+00    0.255E+00
DAV:  11    -0.377466746751E+03    0.13429E+00   -0.14903E-01   768   0.945E-01    0.105E+00
DAV:  12    -0.377396101494E+03    0.70645E-01   -0.73744E-02   768   0.662E-01    0.648E-01
DAV:  13    -0.377379334650E+03    0.16767E-01   -0.15238E-02   768   0.337E-01    0.484E-01
DAV:  14    -0.377366633049E+03    0.12702E-01   -0.18459E-02   768   0.342E-01    0.272E-01
DAV:  15    -0.377368142850E+03   -0.15098E-02   -0.51686E-03   768   0.203E-01    0.223E-01
DAV:  16    -0.377379582752E+03   -0.11440E-01   -0.25210E-03   768   0.154E-01    0.968E-02
DAV:  17    -0.377384597628E+03   -0.50149E-02   -0.10030E-03   768   0.923E-02    0.775E-02
DAV:  18    -0.377389372989E+03   -0.47754E-02   -0.41565E-04   896   0.623E-02    0.591E-02
DAV:  19    -0.377392878350E+03   -0.35054E-02   -0.23169E-04   768   0.453E-02    0.330E-02
DAV:  20    -0.377394797679E+03   -0.19193E-02   -0.84193E-05   768   0.267E-02    0.216E-02
DAV:  21    -0.377396396581E+03   -0.15989E-02   -0.41709E-05   768   0.186E-02    0.134E-02
DAV:  22    -0.377397333092E+03   -0.93651E-03   -0.22280E-05   640   0.121E-02    0.981E-03
DAV:  23    -0.377397954293E+03   -0.62120E-03   -0.17366E-05   768   0.885E-03    0.631E-03
DAV:  24    -0.377398308729E+03   -0.35444E-03   -0.73858E-06   640   0.584E-03    0.278E-03
DAV:  25    -0.377398485619E+03   -0.17689E-03   -0.32773E-06   640   0.360E-03    0.207E-03
DAV:  26    -0.377398590552E+03   -0.10493E-03   -0.15323E-06   640   0.229E-03    0.149E-03
DAV:  27    -0.377398660107E+03   -0.69555E-04   -0.10629E-06   640   0.186E-03    0.918E-04
DAV:  28    -0.377398683426E+03   -0.23319E-04   -0.16331E-07   640   0.948E-04    0.585E-04
DAV:  29    -0.377398698497E+03   -0.15071E-04   -0.26124E-08   640   0.649E-04    0.366E-04
DAV:  30    -0.377398710433E+03   -0.11936E-04   -0.34912E-08   640   0.658E-04    0.224E-04
DAV:  31    -0.377398715317E+03   -0.48840E-05    0.67591E-08   640   0.381E-04
   1 F= -.37739872E+03 E0= -.37739872E+03  d E =-.499355E-65  mag=     0.0000
