 vasp.5.3.5 31Mar14 (build Apr 08 2014 12:00:03) complex                        
  
 VASP binary ID code NSC-NSCPATCH-BUILD02 date 2017.03.15  18:38:23
 running on   64 total cores
 distrk:  each k-point on   64 cores,    1 groups
 distr:  one band on NCORES_PER_BAND=   1 cores,   64 groups


--------------------------------------------------------------------------------------------------------


 INCAR:
 POTCAR:    PAW_PBE C_h 06Feb2004                 
 POTCAR:    PAW_PBE C_h 06Feb2004                 
 POTCAR:    PAW_PBE H 15Jun2001                   
 POTCAR:    PAW_PBE N_h 06Feb2004                 
 POTCAR:    PAW_PBE O_h 06Feb2004                 
 POTCAR:    PAW_PBE Ru_pv 28Jan2005               

 ----------------------------------------------------------------------------- 
|                                                                             |
|           W    W    AA    RRRRR   N    N  II  N    N   GGGG   !!!           |
|           W    W   A  A   R    R  NN   N  II  NN   N  G    G  !!!           |
|           W    W  A    A  R    R  N N  N  II  N N  N  G       !!!           |
|           W WW W  AAAAAA  RRRRR   N  N N  II  N  N N  G  GGG   !            |
|           WW  WW  A    A  R   R   N   NN  II  N   NN  G    G                |
|           W    W  A    A  R    R  N    N  II  N    N   GGGG   !!!           |
|                                                                             |
|      For optimal performance we recommend to set                            |
|        NCORE= 4 - approx SQRT( number of cores)                             |
|      NCORE specifies how many cores store one orbital (NPAR=cpu/NCORE).     |
|      This setting can  greatly improve the performance of VASP for DFT.     |
|      The default, NPAR=number of cores might be grossly inefficient         |
|      on modern multi-core architectures or massively parallel machines.     |
|      Do your own testing !!!!                                               |
|      Unfortunately you need to use the default for GW and RPA calculations. |
|      (for HF NCORE is supported but not extensively tested yet)             |
|                                                                             |
 ----------------------------------------------------------------------------- 

 POTCAR:    PAW_PBE C_h 06Feb2004                 
   VRHFIN =C: s2p2                                                              
   LEXCH  = PE                                                                  
   EATOM  =   147.1560 eV,   10.8157 Ry                                         
                                                                                
   TITEL  = PAW_PBE C_h 06Feb2004                                               
   LULTRA =        F    use ultrasoft PP ?                                      
   IUNSCR =        1    unscreen: 0-lin 1-nonlin 2-no                           
   RPACOR =    0.800    partial core radius                                     
   POMASS =   12.011; ZVAL   =    4.000    mass and valenz                      
   RCORE  =    1.100    outmost cutoff radius                                   
   RWIGS  =    1.630; RWIGS  =    0.863    wigner-seitz radius (au A)           
   ENMAX  =  700.000; ENMIN  =  500.000 eV                                      
   ICORE  =        2    local potential                                         
   LCOR   =        T    correct aug charges                                     
   LPAW   =        T    paw PP                                                  
   EAUG   =  946.768                                                            
   DEXC   =    0.000                                                            
   RMAX   =    1.128    core radius for proj-oper                               
   RAUG   =    1.300    factor for augmentation sphere                          
   RDEP   =    1.162    radius for radial grids                                 
   RDEPT  =    1.088    core radius for aug-charge                              
                                                                                
   Atomic configuration                                                         
    4 entries                                                                   
     n  l   j            E        occ.                                          
     1  0  0.50      -273.3789   2.0000                                         
     2  0  0.50       -13.7508   2.0000                                         
     2  1  0.50        -5.2854   2.0000                                         
     3  2  1.50        -5.4423   0.0000                                         
   Description                                                                  
     l       E           TYP  RCUT    TYP  RCUT                                 
     0    -13.7508458     23  1.100                                             
     0     -8.2022199     23  1.100                                             
     1     -5.2854383     23  1.100                                             
     1      1.1560700     23  1.100                                             
     2     -5.4423304      7  1.100                                             
  local pseudopotential read in
  partial core-charges read in
  partial kinetic energy density read in
  atomic valenz-charges read in
  non local Contribution for L=           0  read in
    real space projection operators read in
  non local Contribution for L=           0  read in
    real space projection operators read in
  non local Contribution for L=           1  read in
    real space projection operators read in
  non local Contribution for L=           1  read in
    real space projection operators read in
    PAW grid and wavefunctions read in
 
   number of l-projection  operators is LMAX  =           4
   number of lm-projection operators is LMMAX =           8
 
 POTCAR:    PAW_PBE C_h 06Feb2004                 
   VRHFIN =C: s2p2                                                              
   LEXCH  = PE                                                                  
   EATOM  =   147.1560 eV,   10.8157 Ry                                         
                                                                                
   TITEL  = PAW_PBE C_h 06Feb2004                                               
   LULTRA =        F    use ultrasoft PP ?                                      
   IUNSCR =        1    unscreen: 0-lin 1-nonlin 2-no                           
   RPACOR =    0.800    partial core radius                                     
   POMASS =   12.011; ZVAL   =    4.000    mass and valenz                      
   RCORE  =    1.100    outmost cutoff radius                                   
   RWIGS  =    1.630; RWIGS  =    0.863    wigner-seitz radius (au A)           
   ENMAX  =  700.000; ENMIN  =  500.000 eV                                      
   ICORE  =        2    local potential                                         
   LCOR   =        T    correct aug charges                                     
   LPAW   =        T    paw PP                                                  
   EAUG   =  946.768                                                            
   DEXC   =    0.000                                                            
   RMAX   =    1.128    core radius for proj-oper                               
   RAUG   =    1.300    factor for augmentation sphere                          
   RDEP   =    1.162    radius for radial grids                                 
   RDEPT  =    1.088    core radius for aug-charge                              
                                                                                
   Atomic configuration                                                         
    4 entries                                                                   
     n  l   j            E        occ.                                          
     1  0  0.50      -273.3789   2.0000                                         
     2  0  0.50       -13.7508   2.0000                                         
     2  1  0.50        -5.2854   2.0000                                         
     3  2  1.50        -5.4423   0.0000                                         
   Description                                                                  
     l       E           TYP  RCUT    TYP  RCUT                                 
     0    -13.7508458     23  1.100                                             
     0     -8.2022199     23  1.100                                             
     1     -5.2854383     23  1.100                                             
     1      1.1560700     23  1.100                                             
     2     -5.4423304      7  1.100                                             
  local pseudopotential read in
  partial core-charges read in
  partial kinetic energy density read in
  atomic valenz-charges read in
  non local Contribution for L=           0  read in
    real space projection operators read in
  non local Contribution for L=           0  read in
    real space projection operators read in
  non local Contribution for L=           1  read in
    real space projection operators read in
  non local Contribution for L=           1  read in
    real space projection operators read in
    PAW grid and wavefunctions read in
 
   number of l-projection  operators is LMAX  =           4
   number of lm-projection operators is LMMAX =           8
 
 POTCAR:    PAW_PBE H 15Jun2001                   
   VRHFIN =H: ultrasoft test                                                    
   LEXCH  = PE                                                                  
   EATOM  =    12.4884 eV,    0.9179 Ry                                         
                                                                                
   TITEL  = PAW_PBE H 15Jun2001                                                 
   LULTRA =        F    use ultrasoft PP ?                                      
   IUNSCR =        0    unscreen: 0-lin 1-nonlin 2-no                           
   RPACOR =    0.000    partial core radius                                     
   POMASS =    1.000; ZVAL   =    1.000    mass and valenz                      
   RCORE  =    1.100    outmost cutoff radius                                   
   RWIGS  =    0.700; RWIGS  =    0.370    wigner-seitz radius (au A)           
   ENMAX  =  250.000; ENMIN  =  200.000 eV                                      
   RCLOC  =    0.701    cutoff for local pot                                    
   LCOR   =        T    correct aug charges                                     
   LPAW   =        T    paw PP                                                  
   EAUG   =  400.000                                                            
   RMAX   =    1.123    core radius for proj-oper                               
   RAUG   =    1.200    factor for augmentation sphere                          
   RDEP   =    1.112    radius for radial grids                                 
   RDEPT  =    0.926    core radius for aug-charge                              
                                                                                
   Atomic configuration                                                         
    2 entries                                                                   
     n  l   j            E        occ.                                          
     1  0  0.50        -6.4927   1.0000                                         
     2  1  0.50        -3.4015   0.0000                                         
   Description                                                                  
     l       E           TYP  RCUT    TYP  RCUT                                 
     0     -6.4927494     23  1.100                                             
     0      6.8029130     23  1.100                                             
     1     -4.0817478     23  1.100                                             
  local pseudopotential read in
  atomic valenz-charges read in
  non local Contribution for L=           0  read in
    real space projection operators read in
  non local Contribution for L=           0  read in
    real space projection operators read in
  non local Contribution for L=           1  read in
    real space projection operators read in
    PAW grid and wavefunctions read in
 
   number of l-projection  operators is LMAX  =           3
   number of lm-projection operators is LMMAX =           5
 
 POTCAR:    PAW_PBE N_h 06Feb2004                 
   VRHFIN =N: s2p3                                                              
   LEXCH  = PE                                                                  
   EATOM  =   264.5486 eV,   19.4438 Ry                                         
                                                                                
   TITEL  = PAW_PBE N_h 06Feb2004                                               
   LULTRA =        F    use ultrasoft PP ?                                      
   IUNSCR =        1    unscreen: 0-lin 1-nonlin 2-no                           
   RPACOR =    0.800    partial core radius                                     
   POMASS =   14.001; ZVAL   =    5.000    mass and valenz                      
   RCORE  =    1.100    outmost cutoff radius                                   
   RWIGS  =    1.480; RWIGS  =    0.783    wigner-seitz radius (au A)           
   ENMAX  =  700.000; ENMIN  =  500.000 eV                                      
   ICORE  =        2    local potential                                         
   LCOR   =        T    correct aug charges                                     
   LPAW   =        T    paw PP                                                  
   EAUG   =  904.640                                                            
   DEXC   =    0.000                                                            
   RMAX   =    1.127    core radius for proj-oper                               
   RAUG   =    1.300    factor for augmentation sphere                          
   RDEP   =    1.115    radius for radial grids                                 
   RDEPT  =    1.106    core radius for aug-charge                              
                                                                                
   Atomic configuration                                                         
    4 entries                                                                   
     n  l   j            E        occ.                                          
     1  0  0.50      -384.7179   2.0000                                         
     2  0  0.50       -18.5828   2.0000                                         
     2  1  0.50        -7.0898   3.0000                                         
     3  2  1.50        -6.8029   0.0000                                         
   Description                                                                  
     l       E           TYP  RCUT    TYP  RCUT                                 
     0    -18.5828117     23  1.100                                             
     0    -15.0750597     23  1.100                                             
     1     -7.0897851     23  1.100                                             
     1     -1.9663412     23  1.100                                             
     2     -6.8029130      7  1.100                                             
  local pseudopotential read in
  partial core-charges read in
  partial kinetic energy density read in
  kinetic energy density of atom read in
  atomic valenz-charges read in
  non local Contribution for L=           0  read in
    real space projection operators read in
  non local Contribution for L=           0  read in
    real space projection operators read in
  non local Contribution for L=           1  read in
    real space projection operators read in
  non local Contribution for L=           1  read in
    real space projection operators read in
    PAW grid and wavefunctions read in
 
   number of l-projection  operators is LMAX  =           4
   number of lm-projection operators is LMMAX =           8
 
 POTCAR:    PAW_PBE O_h 06Feb2004                 
   VRHFIN =O: s2p4                                                              
   LEXCH  = PE                                                                  
   EATOM  =   432.3788 eV,   31.7789 Ry                                         
                                                                                
   TITEL  = PAW_PBE O_h 06Feb2004                                               
   LULTRA =        F    use ultrasoft PP ?                                      
   IUNSCR =        1    unscreen: 0-lin 1-nonlin 2-no                           
   RPACOR =    0.800    partial core radius                                     
   POMASS =   16.000; ZVAL   =    6.000    mass and valenz                      
   RCORE  =    1.100    outmost cutoff radius                                   
   RWIGS  =    1.400; RWIGS  =    0.741    wigner-seitz radius (au A)           
   ENMAX  =  700.000; ENMIN  =  500.000 eV                                      
   ICORE  =        2    local potential                                         
   LCOR   =        T    correct aug charges                                     
   LPAW   =        T    paw PP                                                  
   EAUG   =  888.804                                                            
   DEXC   =    0.000                                                            
   RMAX   =    1.128    core radius for proj-oper                               
   RAUG   =    1.300    factor for augmentation sphere                          
   RDEP   =    1.125    radius for radial grids                                 
   RDEPT  =    1.088    core radius for aug-charge                              
                                                                                
   Atomic configuration                                                         
    4 entries                                                                   
     n  l   j            E        occ.                                          
     1  0  0.50      -514.6923   2.0000                                         
     2  0  0.50       -23.9615   2.0000                                         
     2  1  0.50        -9.0305   4.0000                                         
     3  2  1.50        -9.5241   0.0000                                         
   Description                                                                  
     l       E           TYP  RCUT    TYP  RCUT                                 
     0    -23.9615319     23  1.100                                             
     0    -25.3221145     23  1.100                                             
     1     -9.0304911     23  1.100                                             
     1     -5.4802209     23  1.100                                             
     2     -9.5240782      7  1.100                                             
  local pseudopotential read in
  partial core-charges read in
  partial kinetic energy density read in
  atomic valenz-charges read in
  non local Contribution for L=           0  read in
    real space projection operators read in
  non local Contribution for L=           0  read in
    real space projection operators read in
  non local Contribution for L=           1  read in
    real space projection operators read in
  non local Contribution for L=           1  read in
    real space projection operators read in
    PAW grid and wavefunctions read in
 
   number of l-projection  operators is LMAX  =           4
   number of lm-projection operators is LMMAX =           8
 
 POTCAR:    PAW_PBE Ru_pv 28Jan2005               
   VRHFIN =Ru: 4p5s4d                                                           
   LEXCH  = PE                                                                  
   EATOM  =  1873.4746 eV,  137.6965 Ry                                         
                                                                                
   TITEL  = PAW_PBE Ru_pv 28Jan2005                                             
   LULTRA =        F    use ultrasoft PP ?                                      
   IUNSCR =        1    unscreen: 0-lin 1-nonlin 2-no                           
   RPACOR =    2.170    partial core radius                                     
   POMASS =  101.070; ZVAL   =   14.000    mass and valenz                      
   RCORE  =    2.500    outmost cutoff radius                                   
   RWIGS  =    2.650; RWIGS  =    1.402    wigner-seitz radius (au A)           
   ENMAX  =  240.049; ENMIN  =  180.037 eV                                      
   ICORE  =        3    local potential                                         
   LCOR   =        T    correct aug charges                                     
   LPAW   =        T    paw PP                                                  
   EAUG   =  430.792                                                            
   DEXC   =    0.000                                                            
   RMAX   =    2.546    core radius for proj-oper                               
   RAUG   =    1.300    factor for augmentation sphere                          
   RDEP   =    2.520    radius for radial grids                                 
   RDEPT  =    2.044    core radius for aug-charge                              
                                                                                
   Atomic configuration                                                         
   11 entries                                                                   
     n  l   j            E        occ.                                          
     1  0  0.50    -21933.2692   2.0000                                         
     2  0  0.50     -3153.4096   2.0000                                         
     2  1  1.50     -2823.9548   6.0000                                         
     3  0  0.50      -555.3322   2.0000                                         
     3  1  1.50      -447.1024   6.0000                                         
     3  2  2.50      -273.0570  10.0000                                         
     4  0  0.50       -76.3589   2.0000                                         
     4  1  1.50       -46.4050   6.0000                                         
     4  2  2.50        -5.2029   7.0000                                         
     5  0  0.50        -4.2392   1.0000                                         
     4  3  2.50        -1.3606   0.0000                                         
   Description                                                                  
     l       E           TYP  RCUT    TYP  RCUT                                 
     1    -46.4050190     23  2.100                                             
     1      4.0817478     23  2.100                                             
     2     -5.2028758     23  2.500                                             
     2     -6.5634584     23  2.500                                             
     0     -4.2392192     23  2.500                                             
     0      7.0918828     23  2.500                                             
     3     -5.4423304     23  2.500                                             
  local pseudopotential read in
  partial core-charges read in
  partial kinetic energy density read in
  atomic valenz-charges read in
  non local Contribution for L=           1  read in
    real space projection operators read in
  non local Contribution for L=           1  read in
    real space projection operators read in
  non local Contribution for L=           2  read in
    real space projection operators read in
  non local Contribution for L=           2  read in
    real space projection operators read in
  non local Contribution for L=           0  read in
    real space projection operators read in
  non local Contribution for L=           0  read in
    real space projection operators read in
    PAW grid and wavefunctions read in
 
   number of l-projection  operators is LMAX  =           6
   number of lm-projection operators is LMMAX =          18
 
 Optimization of the real space projectors (new method)

 maximal supplied QI-value         = 34.20
 optimisation between [QCUT,QGAM] = [ 13.34, 27.02] = [ 49.83,204.46] Ry 
 Optimized for a Real-space Cutoff    1.04 Angstroem

   l    n(q)    QCUT    max X(q) W(low)/X(q) W(high)/X(q)  e(spline) 
   0      8    13.340   134.812    0.72E-04    0.21E-03    0.27E-06
   0      8    13.340    80.524    0.70E-04    0.21E-03    0.27E-06
   1      8    13.340    79.026    0.21E-03    0.16E-03    0.33E-06
   1      8    13.340    45.188    0.20E-03    0.15E-03    0.33E-06
 Optimization of the real space projectors (new method)

 maximal supplied QI-value         = 34.20
 optimisation between [QCUT,QGAM] = [ 13.34, 27.02] = [ 49.83,204.46] Ry 
 Optimized for a Real-space Cutoff    1.04 Angstroem

   l    n(q)    QCUT    max X(q) W(low)/X(q) W(high)/X(q)  e(spline) 
   0      8    13.340   134.812    0.72E-04    0.21E-03    0.27E-06
   0      8    13.340    80.524    0.70E-04    0.21E-03    0.27E-06
   1      8    13.340    79.026    0.21E-03    0.16E-03    0.33E-06
   1      8    13.340    45.188    0.20E-03    0.15E-03    0.33E-06
 Optimization of the real space projectors (new method)

 maximal supplied QI-value         = 34.20
 optimisation between [QCUT,QGAM] = [ 13.34, 27.02] = [ 49.83,204.46] Ry 
 Optimized for a Real-space Cutoff    0.98 Angstroem

   l    n(q)    QCUT    max X(q) W(low)/X(q) W(high)/X(q)  e(spline) 
   0      8    13.340    19.460    0.18E-03    0.41E-04    0.19E-06
   0      8    13.340    12.209    0.17E-03    0.45E-04    0.18E-06
   1      7    13.340     4.655    0.16E-03    0.30E-03    0.14E-06
 Optimization of the real space projectors (new method)

 maximal supplied QI-value         = 34.20
 optimisation between [QCUT,QGAM] = [ 13.34, 27.02] = [ 49.83,204.46] Ry 
 Optimized for a Real-space Cutoff    1.04 Angstroem

   l    n(q)    QCUT    max X(q) W(low)/X(q) W(high)/X(q)  e(spline) 
   0      8    13.340   148.539    0.85E-04    0.19E-03    0.21E-06
   0      8    13.340   106.192    0.84E-04    0.19E-03    0.21E-06
   1      8    13.340    73.877    0.18E-03    0.11E-03    0.36E-06
   1      8    13.340    50.042    0.17E-03    0.11E-03    0.36E-06
 Optimization of the real space projectors (new method)

 maximal supplied QI-value         = 34.20
 optimisation between [QCUT,QGAM] = [ 13.34, 27.02] = [ 49.83,204.46] Ry 
 Optimized for a Real-space Cutoff    0.98 Angstroem

   l    n(q)    QCUT    max X(q) W(low)/X(q) W(high)/X(q)  e(spline) 
   0      8    13.340   280.207    0.16E-03    0.35E-03    0.14E-06
   0      8    13.340   228.978    0.16E-03    0.35E-03    0.14E-06
   1      7    13.340    86.127    0.23E-03    0.25E-04    0.30E-06
   1      7    13.340    65.368    0.22E-03    0.27E-04    0.30E-06
 Optimization of the real space projectors (new method)

 maximal supplied QI-value         = 15.12
 optimisation between [QCUT,QGAM] = [ 13.45, 27.06] = [ 50.69,205.06] Ry 
 Optimized for a Real-space Cutoff    1.40 Angstroem

   l    n(q)    QCUT    max X(q) W(low)/X(q) W(high)/X(q)  e(spline) 
   1     11    13.455     3.180    0.18E-04    0.25E-04    0.55E-07
   1     11    13.455     5.351    0.12E-03    0.15E-03    0.24E-06
   2     10    13.455    66.565    0.13E-03    0.46E-04    0.26E-06
   2     10    13.455    63.466    0.13E-03    0.47E-04    0.27E-06
   0     11    13.455    85.644    0.47E-04    0.16E-04    0.33E-06
   0     11    13.455    44.119    0.43E-04    0.15E-04    0.30E-06
  PAW_PBE C_h 06Feb2004                 :
 energy of atom  1       EATOM= -147.1560
 kinetic energy error for atom=    0.0286 (will be added to EATOM!!)
  PAW_PBE C_h 06Feb2004                 :
 energy of atom  2       EATOM= -147.1560
 kinetic energy error for atom=    0.0286 (will be added to EATOM!!)
  PAW_PBE H 15Jun2001                   :
 energy of atom  3       EATOM=  -12.4884
 kinetic energy error for atom=    0.0002 (will be added to EATOM!!)
  PAW_PBE N_h 06Feb2004                 :
 energy of atom  4       EATOM= -264.5486
 kinetic energy error for atom=    0.0847 (will be added to EATOM!!)
  PAW_PBE O_h 06Feb2004                 :
 energy of atom  5       EATOM= -432.3788
 kinetic energy error for atom=    0.1855 (will be added to EATOM!!)
  PAW_PBE Ru_pv 28Jan2005               :
 energy of atom  6       EATOM=-1873.4746
 kinetic energy error for atom=    0.0017 (will be added to EATOM!!)
 
 
 POSCAR: C C H N O Ru                            
  positions in direct lattice
  velocities in cartesian coordinates
 exchange correlation table for  LEXCH =        8
   RHO(1)=    0.500       N(1)  =     2000
   RHO(2)=  100.500       N(2)  =     4000
 


--------------------------------------------------------------------------------------------------------


 ion  position               nearest neighbor table
   1  0.293  0.477  0.568-  45 1.09  25 1.39  17 1.40
   2  0.438  0.566  0.328-  43 1.09   3 1.39   6 1.39
   3  0.456  0.524  0.381-  38 1.09  49 1.36   2 1.39
   4  0.474  0.615  0.450-  34 1.09  49 1.36   5 1.39
   5  0.456  0.660  0.399-  33 1.09   4 1.39   6 1.40
   6  0.438  0.635  0.337-  32 1.09   2 1.39   5 1.40
   7  0.523  0.330  0.675-  26 1.09   8 1.39  16 1.40
   8  0.497  0.372  0.626-  31 1.09  51 1.36   7 1.39
   9  0.602  0.419  0.606-  51 1.37  10 1.40  14 1.47
  10  0.631  0.378  0.654-  28 1.09  16 1.39   9 1.40
  11  0.740  0.529  0.535-  41 1.09  15 1.39  12 1.40
  12  0.701  0.566  0.490-  37 1.09  13 1.39  11 1.40
  13  0.633  0.554  0.487-  47 1.09  53 1.36  12 1.39
  14  0.640  0.469  0.567-  53 1.37  15 1.40   9 1.47
  15  0.708  0.480  0.573-  36 1.09  11 1.39  14 1.40
  16  0.591  0.332  0.689-  27 1.09  10 1.39   7 1.40
  17  0.362  0.489  0.564-  50 1.37   1 1.40  21 1.46
  18  0.408  0.622  0.691-  48 1.09  22 1.39  19 1.40
  19  0.476  0.626  0.677-  44 1.09  20 1.39  18 1.40
  20  0.503  0.586  0.627-  42 1.09  52 1.36  19 1.39
  21  0.398  0.538  0.604-  52 1.38  22 1.40  17 1.46
  22  0.369  0.578  0.654-  30 1.09  18 1.39  21 1.40
  23  0.373  0.406  0.482-  39 1.09  50 1.35  24 1.39
  24  0.305  0.392  0.484-  40 1.09  23 1.39  25 1.40
  25  0.264  0.428  0.528-  46 1.09   1 1.39  24 1.40
  26  0.490  0.295  0.701-   7 1.09
  27  0.613  0.300  0.727-  16 1.09
  28  0.684  0.381  0.665-  10 1.09
  29  0.542  0.362  0.461-  54 0.97
  30  0.316  0.573  0.664-  22 1.09
  31  0.444  0.371  0.614-   8 1.09
  32  0.424  0.668  0.296-   6 1.09
  33  0.456  0.713  0.410-   5 1.09
  34  0.488  0.634  0.499-   4 1.09
  35  0.569  0.418  0.415-  54 0.98
  36  0.738  0.450  0.608-  15 1.09
  37  0.723  0.605  0.459-  12 1.09
  38  0.456  0.470  0.375-   3 1.09
  39  0.406  0.379  0.449-  23 1.09
  40  0.284  0.353  0.452-  24 1.09
  41  0.793  0.537  0.539-  11 1.09
  42  0.556  0.588  0.614-  20 1.09
  43  0.424  0.543  0.280-   2 1.09
  44  0.509  0.660  0.704-  19 1.09
  45  0.263  0.506  0.603-   1 1.09
  46  0.211  0.418  0.531-  25 1.09
  47  0.601  0.582  0.453-  13 1.09
  48  0.385  0.653  0.729-  18 1.09
  49  0.474  0.548  0.441-   4 1.36   3 1.36  55 2.12
  50  0.402  0.453  0.521-  23 1.35  17 1.37  55 2.06
  51  0.535  0.416  0.592-   8 1.36   9 1.37  55 2.06
  52  0.465  0.543  0.590-  20 1.36  21 1.38  55 2.01
  53  0.601  0.507  0.524-  13 1.36  14 1.37  55 2.08
  54  0.531  0.406  0.442-  29 0.97  35 0.98  55 2.24
  55  0.501  0.481  0.519-  52 2.01  50 2.06  51 2.06  53 2.08  49 2.12  54 2.24
 
  LATTYP: Found a simple cubic cell.
 ALAT       =    20.0000000000
  
  Lattice vectors:
  
 A1 = (  20.0000000000,   0.0000000000,   0.0000000000)
 A2 = (   0.0000000000,  20.0000000000,   0.0000000000)
 A3 = (   0.0000000000,   0.0000000000,  20.0000000000)


Analysis of symmetry for initial positions (statically):
=====================================================================
 Subroutine PRICEL returns:
 Original cell was already a primitive cell.
 

 Routine SETGRP: Setting up the symmetry group for a 
 simple cubic supercell.


 Subroutine GETGRP returns: Found  1 space group operations
 (whereof  1 operations were pure point group operations)
 out of a pool of 48 trial point group operations.


The static configuration has the point symmetry C_1 .


Analysis of symmetry for dynamics (positions and initial velocities):
=====================================================================
 Subroutine PRICEL returns:
 Original cell was already a primitive cell.
 

 Routine SETGRP: Setting up the symmetry group for a 
 simple cubic supercell.


 Subroutine GETGRP returns: Found  1 space group operations
 (whereof  1 operations were pure point group operations)
 out of a pool of 48 trial point group operations.


The dynamic configuration has the point symmetry C_1 .


Analysis of constrained symmetry for selective dynamics:
=====================================================================
 Subroutine PRICEL returns:
 Original cell was already a primitive cell.
 

 Routine SETGRP: Setting up the symmetry group for a 
 simple cubic supercell.


 Subroutine GETGRP returns: Found  1 space group operations
 (whereof  1 operations were pure point group operations)
 out of a pool of 48 trial point group operations.


The constrained configuration has the point symmetry C_1 .


Analysis of magnetic symmetry:
=====================================================================
 Subroutine PRICEL returns:
 Original cell was already a primitive cell.
 

 Subroutine MAGSYM returns: Found  1 space group operations
 (whereof  1 operations were pure point group operations)
 out of a pool of  1 trial space group operations
 (whereof  1 operations were pure point group operations)
 and found also     1 'primitive' translations


The magnetic configuration has the point symmetry C_1 .
 
 
 KPOINTS: K-Points                                

Automatic generation of k-mesh.
Space group operators:
 irot       det(A)        alpha          n_x          n_y          n_z        tau_x        tau_y        tau_z
    1     1.000000     0.000000     1.000000     0.000000     0.000000     0.000000     0.000000     0.000000
 
 Subroutine IBZKPT returns following result:
 ===========================================
 
 Found      1 irreducible k-points:
 
 Following reciprocal coordinates:
            Coordinates               Weight
  0.000000  0.000000  0.000000      1.000000
 
 Following cartesian coordinates:
            Coordinates               Weight
  0.000000  0.000000  0.000000      1.000000
 


--------------------------------------------------------------------------------------------------------




 Dimension of arrays:
   k-points           NKPTS =      1   k-points in BZ     NKDIM =      1   number of bands    NBANDS=    128
   number of dos      NEDOS =    301   number of ions     NIONS =     55
   non local maximal  LDIM  =      6   non local SUM 2l+1 LMDIM =     18
   total plane-waves  NPLWV = ******
   max r-space proj   IRMAX =   8473   max aug-charges    IRDMAX= 268848
   dimension x,y,z NGX =   180 NGY =  180 NGZ =  180
   dimension x,y,z NGXF=   360 NGYF=  360 NGZF=  360
   support grid    NGXF=   720 NGYF=  720 NGZF=  720
   ions per type =               1  24  23   5   1   1
 NGX,Y,Z   is equivalent  to a cutoff of  14.96, 14.96, 14.96 a.u.
 NGXF,Y,Z  is equivalent  to a cutoff of  29.92, 29.92, 29.92 a.u.


 I would recommend the setting:
   dimension x,y,z NGX =   173 NGY =  173 NGZ =  173
 SYSTEM =  c2_oh2_ruthenium_mol                    
 POSCAR =  C C H N O Ru                            

 Startparameter for this run:
   NWRITE =      2    write-flag & timer
   PREC   = accura    normal or accurate (medium, high low for compatibility)
   ISTART =      0    job   : 0-new  1-cont  2-samecut
   ICHARG =      2    charge: 1-file 2-atom 10-const
   ISPIN  =      2    spin polarized calculation?
   LNONCOLLINEAR =      F non collinear calculations
   LSORBIT =      F    spin-orbit coupling
   INIWAV =      1    electr: 0-lowe 1-rand  2-diag
   LASPH  =      F    aspherical Exc in radial PAW
   METAGGA=      F    non-selfconsistent MetaGGA calc.

 Electronic Relaxation 1
   ENCUT  =  700.0 eV  51.45 Ry    7.17 a.u.  43.15 43.15 43.15*2*pi/ulx,y,z
   ENINI  =  700.0     initial cutoff
   ENAUG  =  946.8 eV  augmentation charge cutoff
   NELM   =     60;   NELMIN=  2; NELMDL= -5     # of ELM steps 
   EDIFF  = 0.1E-04   stopping-criterion for ELM
   LREAL  =      T    real-space projection
   NLSPLINE    = F    spline interpolate recip. space projectors
   LCOMPAT=      F    compatible to vasp.4.4
   GGA_COMPAT  = T    GGA compatible to vasp.4.4-vasp.4.6
   LMAXPAW     = -100 max onsite density
   LMAXMIX     =    2 max onsite mixed and CHGCAR
   VOSKOWN=      0    Vosko Wilk Nusair interpolation
   ROPT   =   -0.00025  -0.00025  -0.00025  -0.00025
   ROPT   =   -0.00025  -0.00025
 Ionic relaxation
   EDIFFG = -.1E-01   stopping-criterion for IOM
   NSW    =      0    number of steps for IOM
   NBLOCK =      1;   KBLOCK =      1    inner block; outer block 
   IBRION =     -1    ionic relax: 0-MD 1-quasi-New 2-CG
   NFREE  =      0    steps in history (QN), initial steepest desc. (CG)
   ISIF   =      2    stress and relaxation
   IWAVPR =     10    prediction:  0-non 1-charg 2-wave 3-comb
   ISYM   =      2    0-nonsym 1-usesym 2-fastsym
   LCORR  =      T    Harris-Foulkes like correction to forces

   POTIM  = 0.5000    time-step for ionic-motion
   TEIN   =    0.0    initial temperature
   TEBEG  =    0.0;   TEEND  =   0.0 temperature during run
   SMASS  =  -3.00    Nose mass-parameter (am)
   estimated Nose-frequenzy (Omega)   =  0.10E-29 period in steps =****** mass=  -0.914E-26a.u.
   SCALEE = 1.0000    scale energy and forces
   NPACO  =    256;   APACO  = 16.0  distance and # of slots for P.C.
   PSTRESS=    0.0 pullay stress

  Mass of Ions in am
   POMASS =  12.01 12.01  1.00 14.00 16.00101.07
  Ionic Valenz
   ZVAL   =   4.50  4.00  1.00  5.00  6.00 14.00
  Atomic Wigner-Seitz radii
   RWIGS  =  -1.00 -1.00 -1.00 -1.00 -1.00 -1.00
  virtual crystal weights 
   VCA    =   1.00  1.00  1.00  1.00  1.00  1.00
   NELECT =     166.0000    total number of electrons
   NUPDOWN=       0.0000    fix difference up-down

 DOS related values:
   EMIN   =  10.00;   EMAX   =-10.00  energy-range for DOS
   EFERMI =   0.00
   ISMEAR =     0;   SIGMA  =   0.01  broadening in eV -4-tet -1-fermi 0-gaus

 Electronic relaxation 2 (details)
   IALGO  =     38    algorithm
   LDIAG  =      T    sub-space diagonalisation (order eigenvalues)
   LSUBROT=      F    optimize rotation matrix (better conditioning)
   TURBO    =      0    0=normal 1=particle mesh
   IRESTART =      0    0=no restart 2=restart with 2 vectors
   NREBOOT  =      0    no. of reboots
   NMIN     =      0    reboot dimension
   EREF     =   0.00    reference energy to select bands
   IMIX   =      4    mixing-type and parameters
     AMIX     =   0.40;   BMIX     =  2.00
     AMIX_MAG =   1.60;   BMIX_MAG =  2.00
     AMIN     =   0.10
     WC   =   100.;   INIMIX=   1;  MIXPRE=   1;  MAXMIX= -45

 Intra band minimization:
   WEIMIN = 0.0000     energy-eigenvalue tresh-hold
   EBREAK =  0.20E-07  absolut break condition
   DEPER  =   0.30     relativ break condition  

   TIME   =   0.05     timestep for ELM

  volume/ion in A,a.u.               =     145.45       981.58
  Fermi-wavevector in a.u.,A,eV,Ry     =   0.449864  0.850119  2.753510  0.202377
  Thomas-Fermi vector in A             =   1.430192
 
 Write flags
   LWAVE  =      T    write WAVECAR
   LCHARG =      T    write CHGCAR
   LVTOT  =      F    write LOCPOT, total local potential
   LVHAR  =      F    write LOCPOT, Hartree potential only
   LELF   =      F    write electronic localiz. function (ELF)
   LORBIT =      0    0 simple, 1 ext, 2 COOP (PROOUT)


 Dipole corrections
   LMONO  =      F    monopole corrections only (constant potential shift)
   LDIPOL =      F    correct potential (dipole corrections)
   IDIPOL =      0    1-x, 2-y, 3-z, 4-all directions 
   EPSILON=  1.0000000 bulk dielectric constant

 Core level calculations are selected ICORELEVEL =  2
  CLNT =           1       CLN =     1
  CLL  =           0       CLZ = 0.500
 Exchange correlation treatment:
   GGA     =    --    GGA type
   LEXCH   =     8    internal setting for exchange type
   VOSKOWN=      0    Vosko Wilk Nusair interpolation
   LHFCALC =     F    Hartree Fock is set to
   LHFONE  =     F    Hartree Fock one center treatment
   AEXX    =    0.0000 exact exchange contribution

 Linear response parameters
   LEPSILON=     F    determine dielectric tensor
   LRPA    =     F    only Hartree local field effects (RPA)
   LNABLA  =     F    use nabla operator in PAW spheres
   LVEL    =     F    velocity operator in full k-point grid
   LINTERFAST=   F  fast interpolation
   KINTER  =     0    interpolate to denser k-point grid
   CSHIFT  =0.1000    complex shift for real part using Kramers Kronig
   OMEGAMAX=  -1.0    maximum frequency
   DEG_THRESHOLD= 0.2000000E-02 threshold for treating states as degnerate
   RTIME   =    0.100 relaxation time in fs

 Orbital magnetization related:
   ORBITALMAG=     F  switch on orbital magnetization
   LCHIMAG   =     F  perturbation theory with respect to B field
   DQ        =  0.001000  dq finite difference perturbation B field



--------------------------------------------------------------------------------------------------------


 Static calculation
 charge density and potential will be updated during run
 spin polarized calculation
 Variant of blocked Davidson
 Davidson routine will perform the subspace rotation
 perform sub-space diagonalisation
    after iterative eigenvector-optimisation
 modified Broyden-mixing scheme, WC =      100.0
 initial mixing is a Kerker type mixing with AMIX =  0.4000 and BMIX =      2.0000
 Hartree-type preconditioning will be used
 using additional bands           45
 real space projection scheme for non local part
 use partial core corrections
 calculate Harris-corrections to forces 
   (improved forces if not selfconsistent)
 use gradient corrections 
 use of overlap-Matrix (Vanderbilt PP)
 Gauss-broadening in eV      SIGMA  =   0.01


--------------------------------------------------------------------------------------------------------


  energy-cutoff  :      700.00
  volume of cell :     8000.00
      direct lattice vectors                 reciprocal lattice vectors
    20.000000000  0.000000000  0.000000000     0.050000000  0.000000000  0.000000000
     0.000000000 20.000000000  0.000000000     0.000000000  0.050000000  0.000000000
     0.000000000  0.000000000 20.000000000     0.000000000  0.000000000  0.050000000

  length of vectors
    20.000000000 20.000000000 20.000000000     0.050000000  0.050000000  0.050000000


 
 k-points in units of 2pi/SCALE and weight: K-Points                                
   0.00000000  0.00000000  0.00000000       1.000
 
 k-points in reciprocal lattice and weights: K-Points                                
   0.00000000  0.00000000  0.00000000       1.000
 
 position of ions in fractional coordinates (direct lattice) 
   0.29334713  0.47671938  0.56830116
   0.43793752  0.56561110  0.32757008
   0.45581208  0.52423376  0.38051465
   0.47372925  0.61530131  0.44986522
   0.45595175  0.65963312  0.39935201
   0.43785737  0.63472201  0.33675972
   0.52307882  0.32955005  0.67474498
   0.49710163  0.37190466  0.62618823
   0.60227374  0.41933300  0.60593616
   0.63096398  0.37761922  0.65422416
   0.73964927  0.52855915  0.53463181
   0.70082162  0.56612858  0.49044049
   0.63257913  0.55363620  0.48652424
   0.63952130  0.46927713  0.56732841
   0.70843899  0.47974495  0.57314689
   0.59134754  0.33224398  0.68903016
   0.36211554  0.48866484  0.56417415
   0.40790931  0.62211625  0.69058213
   0.47619960  0.62606623  0.67660612
   0.50295190  0.58590820  0.62668073
   0.39825425  0.53800137  0.60426081
   0.36904589  0.57756069  0.65398228
   0.37289802  0.40579857  0.48223443
   0.30486503  0.39173492  0.48443166
   0.26422003  0.42785518  0.52821594
   0.48989745  0.29510618  0.70074864
   0.61334240  0.29968355  0.72673159
   0.68424189  0.38076917  0.66478776
   0.54225374  0.36233861  0.46129841
   0.31579090  0.57306911  0.66420366
   0.44416348  0.37118871  0.61364770
   0.42392665  0.66833230  0.29622671
   0.45642762  0.71313270  0.40950260
   0.48809132  0.63358802  0.49907234
   0.56912778  0.41808713  0.41480476
   0.73767440  0.44963919  0.60776512
   0.72277620  0.60481012  0.45904817
   0.45570253  0.47012894  0.37468790
   0.40614333  0.37888556  0.44852541
   0.28443799  0.35306162  0.45202062
   0.79326502  0.53703787  0.53892527
   0.55589708  0.58769132  0.61440612
   0.42412006  0.54328620  0.27986105
   0.50894741  0.65984570  0.70400156
   0.26265982  0.50568523  0.60265428
   0.21072272  0.41813760  0.53105039
   0.60090654  0.58197914  0.45254259
   0.38544357  0.65296704  0.72941133
   0.47424490  0.54794204  0.44140236
   0.40180479  0.45306079  0.52108436
   0.53520702  0.41608490  0.59173240
   0.46544808  0.54254992  0.59041194
   0.60138410  0.50650621  0.52397638
   0.53073984  0.40562607  0.44215451
   0.50088568  0.48087016  0.51934246
 
 position of ions in cartesian coordinates  (Angst):
   5.86694270  9.53438759 11.36602327
   8.75875044 11.31222209  6.55140167
   9.11624161 10.48467523  7.61029296
   9.47458509 12.30602619  8.99730442
   9.11903505 13.19266234  7.98704025
   8.75714739 12.69444028  6.73519441
  10.46157638  6.59100110 13.49489953
   9.94203263  7.43809325 12.52376455
  12.04547477  8.38665999 12.11872314
  12.61927957  7.55238445 13.08448329
  14.79298537 10.57118301 10.69263621
  14.01643234 11.32257164  9.80880974
  12.65158254 11.07272405  9.73048485
  12.79042597  9.38554253 11.34656829
  14.16877978  9.59489901 11.46293786
  11.82695089  6.64487969 13.78060313
   7.24231077  9.77329687 11.28348299
   8.15818611 12.44232505 13.81164268
   9.52399198 12.52132464 13.53212240
  10.05903801 11.71816400 12.53361469
   7.96508499 10.76002740 12.08521614
   7.38091777 11.55121387 13.07964553
   7.45796037  8.11597149  9.64468853
   6.09730063  7.83469839  9.68863321
   5.28440067  8.55710369 10.56431882
   9.79794892  5.90212351 14.01497288
  12.26684793  5.99367109 14.53463185
  13.68483783  7.61538334 13.29575520
  10.84507475  7.24677213  9.22596819
   6.31581791 11.46138226 13.28407311
   8.88326966  7.42377422 12.27295397
   8.47853309 13.36664601  5.92453423
   9.12855243 14.26265408  8.19005201
   9.76182647 12.67176037  9.98144677
  11.38255564  8.36174255  8.29609511
  14.75348806  8.99278384 12.15530242
  14.45552391 12.09620238  9.18096343
   9.11405064  9.40257887  7.49375804
   8.12286663  7.57771114  8.97050829
   5.68875982  7.06123239  9.04041232
  15.86530045 10.74075733 10.77850539
  11.11794158 11.75382641 12.28812234
   8.48240128 10.86572407  5.59722093
  10.17894811 13.19691406 14.08003122
   5.25319634 10.11370460 12.05308551
   4.21445446  8.36275200 10.62100772
  12.01813087 11.63958272  9.05085175
   7.70887141 13.05934086 14.58822659
   9.48489793 10.95884088  8.82804729
   8.03609572  9.06121573 10.42168714
  10.70414049  8.32169803 11.83464804
   9.30896151 10.85099836 11.80823871
  12.02768196 10.13012430 10.47952760
  10.61479684  8.11252146  8.84309019
  10.01771355  9.61740316 10.38684921
 


--------------------------------------------------------------------------------------------------------


 k-point  1 :   0.0000 0.0000 0.0000  plane waves:  336427

 maximum and minimum number of plane-waves per node :    336427   336427

 maximum number of plane-waves:    336427
 maximum index in each direction: 
   IXMAX=   43   IYMAX=   43   IZMAX=   43
   IXMIN=  -43   IYMIN=  -43   IZMIN=  -43

 NGX is ok and might be reduce to 174
 NGY is ok and might be reduce to 174
 NGZ is ok and might be reduce to 174

 serial   3D FFT for wavefunctions
 parallel 3D FFT for charge:
    minimum data exchange during FFTs selected (reduces bandwidth)


 total amount of memory used by VASP on root node   877132. kBytes
========================================================================

   base      :      30000. kBytes
   nonlr-proj:      19361. kBytes
   fftplans  :     269516. kBytes
   grid      :     534988. kBytes
   one-center:       1710. kBytes
   wavefun   :      21557. kBytes
 
     INWAV:  cpu time    0.00: real time    0.00
 Broyden mixing: mesh for mixing (old mesh)
   NGX = 87   NGY = 87   NGZ = 87
  (NGX  =360   NGY  =360   NGZ  =360)
  gives a total of 658503 points

 initial charge density was supplied:
 charge density of overlapping atoms calculated
 number of electron     168.5000000 magnetization       0.0000000
 keeping initial charge density in first step


--------------------------------------------------------------------------------------------------------


 Maximum index for non-local projection operator         8166
 Maximum index for augmentation-charges         3214 (set IRDMAX)


--------------------------------------------------------------------------------------------------------


 First call to EWALD:  gamma=   0.089
 Maximum number of real-space cells 3x 3x 3
 Maximum number of reciprocal cells 3x 3x 3

 FEWALD executed in parallel
    FEWALD:  cpu time    0.00: real time    0.00


----------------------------------------- Iteration    1(   1)  ---------------------------------------


    POTLOK:  cpu time    4.74: real time    4.78
    SETDIJ:  cpu time    2.82: real time    2.83
     EDDAV:  cpu time   14.78: real time   15.72
       DOS:  cpu time    0.02: real time    0.02
    --------------------------------------------
      LOOP:  cpu time   22.35: real time   23.35

 eigenvalue-minimisations  :   768
 total energy-change (2. order) : 0.9094085E+03  (-0.5881139E+04)
 number of electron     168.5000000 magnetization       0.0000000
 augmentation part      168.5000000 magnetization       0.0000000

 Free energy of the ion-electron system (eV)
  ---------------------------------------------------
  alpha Z        PSCENC =        12.91687988
  Ewald energy   TEWEN  =     23288.11272644
  -Hartree energ DENC   =    -28890.39400458
  -exchange      EXHF   =         0.00000000
  -V(xc)+E(xc)   XCENC  =       400.93941836
  PAW double counting   =      5890.45591622    -5710.10246236
  entropy T*S    EENTRO =        -0.00000390
  eigenvalues    EBANDS =     -1675.91983712
  atomic energy  EATOM  =      7593.39991119
  ---------------------------------------------------
  free energy    TOTEN  =       909.40854413 eV

  energy without entropy =      909.40854803  energy(sigma->0) =      909.40854608


--------------------------------------------------------------------------------------------------------




----------------------------------------- Iteration    1(   2)  ---------------------------------------


     EDDAV:  cpu time   19.37: real time   20.44
       DOS:  cpu time    0.01: real time    0.01
    --------------------------------------------
      LOOP:  cpu time   19.38: real time   20.46

 eigenvalue-minimisations  :  1024
 total energy-change (2. order) :-0.9776249E+03  (-0.9709401E+03)
 number of electron     168.5000000 magnetization       0.0000000
 augmentation part      168.5000000 magnetization       0.0000000

 Free energy of the ion-electron system (eV)
  ---------------------------------------------------
  alpha Z        PSCENC =        12.91687988
  Ewald energy   TEWEN  =     23288.11272644
  -Hartree energ DENC   =    -28890.39400458
  -exchange      EXHF   =         0.00000000
  -V(xc)+E(xc)   XCENC  =       400.93941836
  PAW double counting   =      5890.45591622    -5710.10246236
  entropy T*S    EENTRO =        -0.00000000
  eigenvalues    EBANDS =     -2653.54475256
  atomic energy  EATOM  =      7593.39991119
  ---------------------------------------------------
  free energy    TOTEN  =       -68.21636741 eV

  energy without entropy =      -68.21636741  energy(sigma->0) =      -68.21636741


--------------------------------------------------------------------------------------------------------




----------------------------------------- Iteration    1(   3)  ---------------------------------------


     EDDAV:  cpu time   16.05: real time   17.00
       DOS:  cpu time    0.01: real time    0.01
    --------------------------------------------
      LOOP:  cpu time   16.06: real time   17.01

 eigenvalue-minimisations  :   832
 total energy-change (2. order) :-0.3249633E+03  (-0.3245217E+03)
 number of electron     168.5000000 magnetization       0.0000000
 augmentation part      168.5000000 magnetization       0.0000000

 Free energy of the ion-electron system (eV)
  ---------------------------------------------------
  alpha Z        PSCENC =        12.91687988
  Ewald energy   TEWEN  =     23288.11272644
  -Hartree energ DENC   =    -28890.39400458
  -exchange      EXHF   =         0.00000000
  -V(xc)+E(xc)   XCENC  =       400.93941836
  PAW double counting   =      5890.45591622    -5710.10246236
  entropy T*S    EENTRO =        -0.00000000
  eigenvalues    EBANDS =     -2978.50804141
  atomic energy  EATOM  =      7593.39991119
  ---------------------------------------------------
  free energy    TOTEN  =      -393.17965625 eV

  energy without entropy =     -393.17965625  energy(sigma->0) =     -393.17965625


--------------------------------------------------------------------------------------------------------




----------------------------------------- Iteration    1(   4)  ---------------------------------------


     EDDAV:  cpu time   13.82: real time   14.63
       DOS:  cpu time    0.02: real time    0.02
    --------------------------------------------
      LOOP:  cpu time   13.84: real time   14.65

 eigenvalue-minimisations  :   704
 total energy-change (2. order) :-0.1917401E+02  (-0.1915063E+02)
 number of electron     168.5000000 magnetization       0.0000000
 augmentation part      168.5000000 magnetization       0.0000000

 Free energy of the ion-electron system (eV)
  ---------------------------------------------------
  alpha Z        PSCENC =        12.91687988
  Ewald energy   TEWEN  =     23288.11272644
  -Hartree energ DENC   =    -28890.39400458
  -exchange      EXHF   =         0.00000000
  -V(xc)+E(xc)   XCENC  =       400.93941836
  PAW double counting   =      5890.45591622    -5710.10246236
  entropy T*S    EENTRO =        -0.00000000
  eigenvalues    EBANDS =     -2997.68205461
  atomic energy  EATOM  =      7593.39991119
  ---------------------------------------------------
  free energy    TOTEN  =      -412.35366946 eV

  energy without entropy =     -412.35366946  energy(sigma->0) =     -412.35366946


--------------------------------------------------------------------------------------------------------




----------------------------------------- Iteration    1(   5)  ---------------------------------------


     EDDAV:  cpu time   17.05: real time   18.02
       DOS:  cpu time    0.01: real time    0.02
    CHARGE:  cpu time    5.27: real time    5.30
    MIXING:  cpu time    0.08: real time    0.09
    --------------------------------------------
      LOOP:  cpu time   22.42: real time   23.42

 eigenvalue-minimisations  :   896
 total energy-change (2. order) :-0.2317847E+00  (-0.2316999E+00)
 number of electron     166.0000000 magnetization      -0.0000000
 augmentation part        3.5246479 magnetization       0.0000268

 Broyden mixing:
  rms(total) = 0.57567E+01    rms(broyden)= 0.57560E+01
  rms(prec ) = 0.61484E+01
  weight for this iteration     100.00

 Free energy of the ion-electron system (eV)
  ---------------------------------------------------
  alpha Z        PSCENC =        12.91687988
  Ewald energy   TEWEN  =     23288.11272644
  -Hartree energ DENC   =    -28890.39400458
  -exchange      EXHF   =         0.00000000
  -V(xc)+E(xc)   XCENC  =       400.93941836
  PAW double counting   =      5890.45591622    -5710.10246236
  entropy T*S    EENTRO =        -0.00000000
  eigenvalues    EBANDS =     -2997.91383929
  atomic energy  EATOM  =      7593.39991119
  ---------------------------------------------------
  free energy    TOTEN  =      -412.58545414 eV

  energy without entropy =     -412.58545414  energy(sigma->0) =     -412.58545414


--------------------------------------------------------------------------------------------------------




----------------------------------------- Iteration    1(   6)  ---------------------------------------


    POTLOK:  cpu time    4.62: real time    4.64
    SETDIJ:  cpu time    2.81: real time    2.81
     EDDAV:  cpu time   10.78: real time   11.45
       DOS:  cpu time    0.00: real time    0.00
    CHARGE:  cpu time    5.11: real time    5.12
    MIXING:  cpu time    0.19: real time    0.19
    --------------------------------------------
      LOOP:  cpu time   23.51: real time   24.21

 eigenvalue-minimisations  :   512
 total energy-change (2. order) : 0.1852433E+02  (-0.3823369E+02)
 number of electron     166.0000000 magnetization       0.0000000
 augmentation part        6.5267133 magnetization       0.0002244

 Broyden mixing:
  rms(total) = 0.39201E+01    rms(broyden)= 0.39199E+01
  rms(prec ) = 0.40947E+01
  weight for this iteration     100.00

 eigenvalues of (default mixing * dielectric matrix)
  average eigenvalue GAMMA=   1.0333
  1.0333

 Free energy of the ion-electron system (eV)
  ---------------------------------------------------
  alpha Z        PSCENC =        12.91687988
  Ewald energy   TEWEN  =     23288.11272644
  -Hartree energ DENC   =    -28891.75238753
  -exchange      EXHF   =         0.00000000
  -V(xc)+E(xc)   XCENC  =       406.45473971
  PAW double counting   =     20873.63478127   -20706.38761141
  entropy T*S    EENTRO =        -0.00000000
  eigenvalues    EBANDS =     -2970.44015954
  atomic energy  EATOM  =      7593.39991119
  ---------------------------------------------------
  free energy    TOTEN  =      -394.06111998 eV

  energy without entropy =     -394.06111998  energy(sigma->0) =     -394.06111998


--------------------------------------------------------------------------------------------------------




----------------------------------------- Iteration    1(   7)  ---------------------------------------


    POTLOK:  cpu time    4.61: real time    4.63
    SETDIJ:  cpu time    2.81: real time    2.81
     EDDAV:  cpu time   15.10: real time   16.46
       DOS:  cpu time    0.04: real time    0.05
    CHARGE:  cpu time    5.30: real time    5.31
    MIXING:  cpu time    0.18: real time    0.18
    --------------------------------------------
      LOOP:  cpu time   28.04: real time   29.44

 eigenvalue-minimisations  :   768
 total energy-change (2. order) : 0.1085655E+02  (-0.2413752E+01)
 number of electron     166.0000000 magnetization       0.0000000
 augmentation part        5.5996191 magnetization      -0.0000525

 Broyden mixing:
  rms(total) = 0.23883E+01    rms(broyden)= 0.23882E+01
  rms(prec ) = 0.24628E+01
  weight for this iteration     100.00

 eigenvalues of (default mixing * dielectric matrix)
  average eigenvalue GAMMA=   1.4018
  0.7523  2.0514

 Free energy of the ion-electron system (eV)
  ---------------------------------------------------
  alpha Z        PSCENC =        12.91687988
  Ewald energy   TEWEN  =     23288.11272644
  -Hartree energ DENC   =    -29022.20308583
  -exchange      EXHF   =         0.00000000
  -V(xc)+E(xc)   XCENC  =       411.82521002
  PAW double counting   =     36106.99750597   -35934.88182249
  entropy T*S    EENTRO =        -0.00000000
  eigenvalues    EBANDS =     -2839.37189346
  atomic energy  EATOM  =      7593.39991119
  ---------------------------------------------------
  free energy    TOTEN  =      -383.20456828 eV

  energy without entropy =     -383.20456828  energy(sigma->0) =     -383.20456828


--------------------------------------------------------------------------------------------------------




----------------------------------------- Iteration    1(   8)  ---------------------------------------


    POTLOK:  cpu time    4.62: real time    4.63
    SETDIJ:  cpu time    2.80: real time    2.81
     EDDAV:  cpu time   15.09: real time   16.46
       DOS:  cpu time    0.04: real time    0.04
    CHARGE:  cpu time    5.17: real time    5.18
    MIXING:  cpu time    0.14: real time    0.14
    --------------------------------------------
      LOOP:  cpu time   27.86: real time   29.27

 eigenvalue-minimisations  :   768
 total energy-change (2. order) : 0.4338529E+01  (-0.1741304E+01)
 number of electron     166.0000000 magnetization       0.0000000
 augmentation part        4.8781383 magnetization      -0.0000006

 Broyden mixing:
  rms(total) = 0.97867E+00    rms(broyden)= 0.97863E+00
  rms(prec ) = 0.10572E+01
  weight for this iteration     100.00

 eigenvalues of (default mixing * dielectric matrix)
  average eigenvalue GAMMA=   1.4558
  2.6910  0.8382  0.8382

 Free energy of the ion-electron system (eV)
  ---------------------------------------------------
  alpha Z        PSCENC =        12.91687988
  Ewald energy   TEWEN  =     23288.11272644
  -Hartree energ DENC   =    -29173.28598301
  -exchange      EXHF   =         0.00000000
  -V(xc)+E(xc)   XCENC  =       419.56231629
  PAW double counting   =     68138.52875742   -67963.09446190
  entropy T*S    EENTRO =        -0.00000000
  eigenvalues    EBANDS =     -2695.00618545
  atomic energy  EATOM  =      7593.39991119
  ---------------------------------------------------
  free energy    TOTEN  =      -378.86603914 eV

  energy without entropy =     -378.86603914  energy(sigma->0) =     -378.86603914


--------------------------------------------------------------------------------------------------------




----------------------------------------- Iteration    1(   9)  ---------------------------------------


    POTLOK:  cpu time    4.61: real time    4.63
    SETDIJ:  cpu time    2.79: real time    2.80
     EDDAV:  cpu time   15.05: real time   16.32
       DOS:  cpu time    0.05: real time    0.05
    CHARGE:  cpu time    4.99: real time    5.01
    MIXING:  cpu time    0.16: real time    0.16
    --------------------------------------------
      LOOP:  cpu time   27.66: real time   28.98

 eigenvalue-minimisations  :   768
 total energy-change (2. order) : 0.1218132E+01  (-0.4786884E+00)
 number of electron     166.0000000 magnetization       0.0000000
 augmentation part        5.2236823 magnetization      -0.0000073

 Broyden mixing:
  rms(total) = 0.36545E+00    rms(broyden)= 0.36542E+00
  rms(prec ) = 0.40324E+00
  weight for this iteration     100.00

 eigenvalues of (default mixing * dielectric matrix)
  average eigenvalue GAMMA=   1.3291
  2.5258  1.1746  0.8081  0.8081

 Free energy of the ion-electron system (eV)
  ---------------------------------------------------
  alpha Z        PSCENC =        12.91687988
  Ewald energy   TEWEN  =     23288.11272644
  -Hartree energ DENC   =    -29198.31697245
  -exchange      EXHF   =         0.00000000
  -V(xc)+E(xc)   XCENC  =       422.51708699
  PAW double counting   =     82545.02002828   -82371.35821792
  entropy T*S    EENTRO =        -0.00000000
  eigenvalues    EBANDS =     -2669.93934921
  atomic energy  EATOM  =      7593.39991119
  ---------------------------------------------------
  free energy    TOTEN  =      -377.64790680 eV

  energy without entropy =     -377.64790680  energy(sigma->0) =     -377.64790680


--------------------------------------------------------------------------------------------------------




----------------------------------------- Iteration    1(  10)  ---------------------------------------


    POTLOK:  cpu time    4.62: real time    4.64
    SETDIJ:  cpu time    2.79: real time    2.79
     EDDAV:  cpu time   15.23: real time   16.52
       DOS:  cpu time    0.05: real time    0.05
    CHARGE:  cpu time    5.20: real time    5.22
    MIXING:  cpu time    0.10: real time    0.10
    --------------------------------------------
      LOOP:  cpu time   27.98: real time   29.32

 eigenvalue-minimisations  :   768
 total energy-change (2. order) : 0.4686582E-01  (-0.4547860E-01)
 number of electron     166.0000000 magnetization       0.0000000
 augmentation part        5.3329131 magnetization       0.0000106

 Broyden mixing:
  rms(total) = 0.25544E+00    rms(broyden)= 0.25543E+00
  rms(prec ) = 0.29845E+00
  weight for this iteration     100.00

 eigenvalues of (default mixing * dielectric matrix)
  average eigenvalue GAMMA=   1.3883
  2.4968  1.7639  0.8525  0.8525  0.9759

 Free energy of the ion-electron system (eV)
  ---------------------------------------------------
  alpha Z        PSCENC =        12.91687988
  Ewald energy   TEWEN  =     23288.11272644
  -Hartree energ DENC   =    -29184.89372448
  -exchange      EXHF   =         0.00000000
  -V(xc)+E(xc)   XCENC  =       422.50178761
  PAW double counting   =     81342.30297133   -81169.21561473
  entropy T*S    EENTRO =        -0.00000000
  eigenvalues    EBANDS =     -2682.72597821
  atomic energy  EATOM  =      7593.39991119
  ---------------------------------------------------
  free energy    TOTEN  =      -377.60104098 eV

  energy without entropy =     -377.60104098  energy(sigma->0) =     -377.60104098


--------------------------------------------------------------------------------------------------------




----------------------------------------- Iteration    1(  11)  ---------------------------------------


    POTLOK:  cpu time    4.62: real time    4.64
    SETDIJ:  cpu time    2.80: real time    2.81
     EDDAV:  cpu time   15.06: real time   16.34
       DOS:  cpu time    0.05: real time    0.05
    CHARGE:  cpu time    4.83: real time    4.98
    MIXING:  cpu time    0.27: real time    0.27
    --------------------------------------------
      LOOP:  cpu time   27.64: real time   29.09

 eigenvalue-minimisations  :   768
 total energy-change (2. order) : 0.1342942E+00  (-0.1490324E-01)
 number of electron     166.0000000 magnetization       0.0000000
 augmentation part        5.2835398 magnetization      -0.0000108

 Broyden mixing:
  rms(total) = 0.10543E+00    rms(broyden)= 0.10543E+00
  rms(prec ) = 0.14862E+00
  weight for this iteration     100.00

 eigenvalues of (default mixing * dielectric matrix)
  average eigenvalue GAMMA=   1.4772
  2.6170  2.6170  0.8692  0.8692  0.9915  0.8992

 Free energy of the ion-electron system (eV)
  ---------------------------------------------------
  alpha Z        PSCENC =        12.91687988
  Ewald energy   TEWEN  =     23288.11272644
  -Hartree energ DENC   =    -29183.52258630
  -exchange      EXHF   =         0.00000000
  -V(xc)+E(xc)   XCENC  =       423.21516911
  PAW double counting   =     81932.88395530   -81759.61162889
  entropy T*S    EENTRO =        -0.00000000
  eigenvalues    EBANDS =     -2684.86117350
  atomic energy  EATOM  =      7593.39991119
  ---------------------------------------------------
  free energy    TOTEN  =      -377.46674675 eV

  energy without entropy =     -377.46674675  energy(sigma->0) =     -377.46674675


--------------------------------------------------------------------------------------------------------




----------------------------------------- Iteration    1(  12)  ---------------------------------------


    POTLOK:  cpu time    4.62: real time    4.64
    SETDIJ:  cpu time    2.80: real time    2.81
     EDDAV:  cpu time   15.34: real time   16.60
       DOS:  cpu time    0.05: real time    0.05
    CHARGE:  cpu time    5.16: real time    5.18
    MIXING:  cpu time    0.13: real time    0.13
    --------------------------------------------
      LOOP:  cpu time   28.11: real time   29.40

 eigenvalue-minimisations  :   768
 total energy-change (2. order) : 0.7064526E-01  (-0.7374379E-02)
 number of electron     166.0000000 magnetization       0.0000000
 augmentation part        5.2550387 magnetization       0.0000175

 Broyden mixing:
  rms(total) = 0.64803E-01    rms(broyden)= 0.64801E-01
  rms(prec ) = 0.96326E-01
  weight for this iteration     100.00

 eigenvalues of (default mixing * dielectric matrix)
  average eigenvalue GAMMA=   1.4337
  2.7867  2.7867  1.0059  1.0059  0.8669  0.8669  0.7171

 Free energy of the ion-electron system (eV)
  ---------------------------------------------------
  alpha Z        PSCENC =        12.91687988
  Ewald energy   TEWEN  =     23288.11272644
  -Hartree energ DENC   =    -29177.59838241
  -exchange      EXHF   =         0.00000000
  -V(xc)+E(xc)   XCENC  =       423.78882603
  PAW double counting   =     81569.98686055   -81396.67647249
  entropy T*S    EENTRO =        -0.00000000
  eigenvalues    EBANDS =     -2691.32645069
  atomic energy  EATOM  =      7593.39991119
  ---------------------------------------------------
  free energy    TOTEN  =      -377.39610149 eV

  energy without entropy =     -377.39610149  energy(sigma->0) =     -377.39610149


--------------------------------------------------------------------------------------------------------




----------------------------------------- Iteration    1(  13)  ---------------------------------------


    POTLOK:  cpu time    4.63: real time    4.65
    SETDIJ:  cpu time    2.81: real time    2.81
     EDDAV:  cpu time   15.02: real time   16.34
       DOS:  cpu time    0.05: real time    0.04
    CHARGE:  cpu time    5.27: real time    5.27
    MIXING:  cpu time    0.08: real time    0.08
    --------------------------------------------
      LOOP:  cpu time   27.86: real time   29.20

 eigenvalue-minimisations  :   768
 total energy-change (2. order) : 0.1676684E-01  (-0.1523768E-02)
 number of electron     166.0000000 magnetization       0.0000000
 augmentation part        5.2597505 magnetization      -0.0000260

 Broyden mixing:
  rms(total) = 0.48396E-01    rms(broyden)= 0.48395E-01
  rms(prec ) = 0.72944E-01
  weight for this iteration     100.00

 eigenvalues of (default mixing * dielectric matrix)
  average eigenvalue GAMMA=   1.5646
  3.2025  2.9666  1.8223  0.8730  0.8730  1.0741  1.0741  0.6314

 Free energy of the ion-electron system (eV)
  ---------------------------------------------------
  alpha Z        PSCENC =        12.91687988
  Ewald energy   TEWEN  =     23288.11272644
  -Hartree energ DENC   =    -29171.22834654
  -exchange      EXHF   =         0.00000000
  -V(xc)+E(xc)   XCENC  =       424.01835045
  PAW double counting   =     81227.60126956   -81054.36939536
  entropy T*S    EENTRO =        -0.00000000
  eigenvalues    EBANDS =     -2697.83073027
  atomic energy  EATOM  =      7593.39991119
  ---------------------------------------------------
  free energy    TOTEN  =      -377.37933465 eV

  energy without entropy =     -377.37933465  energy(sigma->0) =     -377.37933465


--------------------------------------------------------------------------------------------------------




----------------------------------------- Iteration    1(  14)  ---------------------------------------


    POTLOK:  cpu time    4.71: real time    4.74
    SETDIJ:  cpu time    2.71: real time    2.84
     EDDAV:  cpu time   15.24: real time   16.54
       DOS:  cpu time    0.05: real time    0.05
    CHARGE:  cpu time    4.98: real time    4.98
    MIXING:  cpu time    0.25: real time    0.25
    --------------------------------------------
      LOOP:  cpu time   27.95: real time   29.42

 eigenvalue-minimisations  :   768
 total energy-change (2. order) : 0.1270160E-01  (-0.1845854E-02)
 number of electron     166.0000000 magnetization       0.0000000
 augmentation part        5.2615845 magnetization       0.0000096

 Broyden mixing:
  rms(total) = 0.27159E-01    rms(broyden)= 0.27157E-01
  rms(prec ) = 0.42712E-01
  weight for this iteration     100.00

 eigenvalues of (default mixing * dielectric matrix)
  average eigenvalue GAMMA=   1.6547
  4.5784  2.4841  2.1969  1.3357  0.8664  0.8664  0.9691  0.9691  0.6264

 Free energy of the ion-electron system (eV)
  ---------------------------------------------------
  alpha Z        PSCENC =        12.91687988
  Ewald energy   TEWEN  =     23288.11272644
  -Hartree energ DENC   =    -29160.76129969
  -exchange      EXHF   =         0.00000000
  -V(xc)+E(xc)   XCENC  =       424.31965699
  PAW double counting   =     80972.58823586   -80799.42552413
  entropy T*S    EENTRO =        -0.00000000
  eigenvalues    EBANDS =     -2708.51721960
  atomic energy  EATOM  =      7593.39991119
  ---------------------------------------------------
  free energy    TOTEN  =      -377.36663305 eV

  energy without entropy =     -377.36663305  energy(sigma->0) =     -377.36663305


--------------------------------------------------------------------------------------------------------




----------------------------------------- Iteration    1(  15)  ---------------------------------------


    POTLOK:  cpu time    4.62: real time    4.66
    SETDIJ:  cpu time    2.79: real time    2.79
     EDDAV:  cpu time   15.03: real time   16.34
       DOS:  cpu time    0.06: real time    0.06
    CHARGE:  cpu time    5.17: real time    5.17
    MIXING:  cpu time    0.17: real time    0.17
    --------------------------------------------
      LOOP:  cpu time   27.83: real time   29.19

 eigenvalue-minimisations  :   768
 total energy-change (2. order) :-0.1509801E-02  (-0.5168635E-03)
 number of electron     166.0000000 magnetization       0.0000000
 augmentation part        5.2594718 magnetization      -0.0000067

 Broyden mixing:
  rms(total) = 0.22253E-01    rms(broyden)= 0.22252E-01
  rms(prec ) = 0.31117E-01
  weight for this iteration     100.00

 eigenvalues of (default mixing * dielectric matrix)
  average eigenvalue GAMMA=   1.7201
  5.0634  2.2749  2.2749  2.0574  1.2514  0.8740  0.8740  1.0201  0.8852  0.6256

 Free energy of the ion-electron system (eV)
  ---------------------------------------------------
  alpha Z        PSCENC =        12.91687988
  Ewald energy   TEWEN  =     23288.11272644
  -Hartree energ DENC   =    -29152.58191139
  -exchange      EXHF   =         0.00000000
  -V(xc)+E(xc)   XCENC  =       424.43478247
  PAW double counting   =     81002.31048984   -80829.13845662
  entropy T*S    EENTRO =        -0.00000000
  eigenvalues    EBANDS =     -2716.82256466
  atomic energy  EATOM  =      7593.39991119
  ---------------------------------------------------
  free energy    TOTEN  =      -377.36814285 eV

  energy without entropy =     -377.36814285  energy(sigma->0) =     -377.36814285


--------------------------------------------------------------------------------------------------------




----------------------------------------- Iteration    1(  16)  ---------------------------------------


    POTLOK:  cpu time    4.62: real time    4.79
    SETDIJ:  cpu time    2.79: real time    2.80
     EDDAV:  cpu time   15.18: real time   16.52
       DOS:  cpu time    0.06: real time    0.06
    CHARGE:  cpu time    5.17: real time    5.20
    MIXING:  cpu time    0.14: real time    0.14
    --------------------------------------------
      LOOP:  cpu time   27.97: real time   29.52

 eigenvalue-minimisations  :   768
 total energy-change (2. order) :-0.1143990E-01  (-0.2520983E-03)
 number of electron     166.0000000 magnetization       0.0000000
 augmentation part        5.2608987 magnetization       0.0000116

 Broyden mixing:
  rms(total) = 0.96783E-02    rms(broyden)= 0.96777E-02
  rms(prec ) = 0.15467E-01
  weight for this iteration     100.00

 eigenvalues of (default mixing * dielectric matrix)
  average eigenvalue GAMMA=   1.8017
  6.0057  2.7061  2.7061  1.8449  1.4256  0.8740  0.8740  0.9521  0.9521  0.8523
  0.6255

 Free energy of the ion-electron system (eV)
  ---------------------------------------------------
  alpha Z        PSCENC =        12.91687988
  Ewald energy   TEWEN  =     23288.11272644
  -Hartree energ DENC   =    -29142.28527453
  -exchange      EXHF   =         0.00000000
  -V(xc)+E(xc)   XCENC  =       424.38217245
  PAW double counting   =     81113.50752277   -80940.30410576
  entropy T*S    EENTRO =        -0.00000000
  eigenvalues    EBANDS =     -2727.10941520
  atomic energy  EATOM  =      7593.39991119
  ---------------------------------------------------
  free energy    TOTEN  =      -377.37958275 eV

  energy without entropy =     -377.37958275  energy(sigma->0) =     -377.37958275


--------------------------------------------------------------------------------------------------------




----------------------------------------- Iteration    1(  17)  ---------------------------------------


    POTLOK:  cpu time    4.63: real time    4.67
    SETDIJ:  cpu time    2.78: real time    2.78
     EDDAV:  cpu time   15.01: real time   16.33
       DOS:  cpu time    0.05: real time    0.05
    CHARGE:  cpu time    5.21: real time    5.21
    MIXING:  cpu time    0.13: real time    0.13
    --------------------------------------------
      LOOP:  cpu time   27.81: real time   29.17

 eigenvalue-minimisations  :   768
 total energy-change (2. order) :-0.5014876E-02  (-0.1002957E-03)
 number of electron     166.0000000 magnetization       0.0000000
 augmentation part        5.2622329 magnetization      -0.0000106

 Broyden mixing:
  rms(total) = 0.77518E-02    rms(broyden)= 0.77517E-02
  rms(prec ) = 0.10677E-01
  weight for this iteration     100.00

 eigenvalues of (default mixing * dielectric matrix)
  average eigenvalue GAMMA=   1.8212
  6.5622  2.8445  2.8445  1.6896  1.6896  0.8751  0.8751  1.0803  0.9705  0.9705
  0.8271  0.6253

 Free energy of the ion-electron system (eV)
  ---------------------------------------------------
  alpha Z        PSCENC =        12.91687988
  Ewald energy   TEWEN  =     23288.11272644
  -Hartree energ DENC   =    -29136.67127490
  -exchange      EXHF   =         0.00000000
  -V(xc)+E(xc)   XCENC  =       424.35296542
  PAW double counting   =     81128.31926131   -80955.11216910
  entropy T*S    EENTRO =        -0.00000000
  eigenvalues    EBANDS =     -2732.70289788
  atomic energy  EATOM  =      7593.39991119
  ---------------------------------------------------
  free energy    TOTEN  =      -377.38459763 eV

  energy without entropy =     -377.38459763  energy(sigma->0) =     -377.38459763


--------------------------------------------------------------------------------------------------------




----------------------------------------- Iteration    1(  18)  ---------------------------------------


    POTLOK:  cpu time    4.60: real time    4.78
    SETDIJ:  cpu time    2.80: real time    2.80
     EDDAV:  cpu time   17.24: real time   18.71
       DOS:  cpu time    0.05: real time    0.05
    CHARGE:  cpu time    5.13: real time    5.15
    MIXING:  cpu time    0.15: real time    0.15
    --------------------------------------------
      LOOP:  cpu time   29.97: real time   31.65

 eigenvalue-minimisations  :   896
 total energy-change (2. order) :-0.4775361E-02  (-0.4156521E-04)
 number of electron     166.0000000 magnetization       0.0000000
 augmentation part        5.2626514 magnetization       0.0000192

 Broyden mixing:
  rms(total) = 0.59128E-02    rms(broyden)= 0.59126E-02
  rms(prec ) = 0.75526E-02
  weight for this iteration     100.00

 eigenvalues of (default mixing * dielectric matrix)
[...]
 12.563   0.000  21.160   0.000  -0.001   0.000  -0.002   0.000   0.005   0.000  -0.001   0.000  -0.003   0.000   0.008   0.000
 21.160   0.000  35.639   0.000  -0.001   0.000  -0.003   0.000   0.008   0.000  -0.002   0.000  -0.005   0.000   0.013   0.000
 -0.001   0.000  -0.001   0.000  -3.541   0.000  -0.001   0.000  -0.000   0.000  -6.364   0.000  -0.001   0.000  -0.000   0.000
 -0.002   0.000  -0.003   0.000  -0.001   0.000  -3.541   0.000   0.000   0.000  -0.001   0.000  -6.363   0.000   0.000   0.000
  0.005   0.000   0.008   0.000  -0.000   0.000   0.000   0.000  -3.541   0.000  -0.000   0.000   0.000   0.000  -6.365   0.000
 -0.001   0.000  -0.002   0.000  -6.364   0.000  -0.001   0.000  -0.000   0.000 -11.415   0.000  -0.002   0.000  -0.001   0.000
 -0.003   0.000  -0.005   0.000  -0.001   0.000  -6.363   0.000   0.000   0.000  -0.002   0.000 -11.414   0.000   0.000   0.000
  0.008   0.000   0.013   0.000  -0.000   0.000   0.000   0.000  -6.365   0.000  -0.001   0.000   0.000   0.000 -11.417   0.000
 pseudopotential strength for first ion, spin component:           2
 12.563   0.000  21.160   0.000  -0.001   0.000  -0.002   0.000   0.005   0.000  -0.001   0.000  -0.003   0.000   0.008   0.000
 21.160   0.000  35.639   0.000  -0.001   0.000  -0.003   0.000   0.008   0.000  -0.002   0.000  -0.005   0.000   0.013   0.000
 -0.001   0.000  -0.001   0.000  -3.541   0.000  -0.001   0.000  -0.000   0.000  -6.364   0.000  -0.001   0.000  -0.000   0.000
 -0.002   0.000  -0.003   0.000  -0.001   0.000  -3.541   0.000   0.000   0.000  -0.001   0.000  -6.363   0.000   0.000   0.000
  0.005   0.000   0.008   0.000  -0.000   0.000   0.000   0.000  -3.541   0.000  -0.000   0.000   0.000   0.000  -6.365   0.000
 -0.001   0.000  -0.002   0.000  -6.364   0.000  -0.001   0.000  -0.000   0.000 -11.415   0.000  -0.002   0.000  -0.001   0.000
 -0.003   0.000  -0.005   0.000  -0.001   0.000  -6.363   0.000   0.000   0.000  -0.002   0.000 -11.414   0.000   0.000   0.000
  0.008   0.000   0.013   0.000  -0.000   0.000   0.000   0.000  -6.365   0.000  -0.001   0.000   0.000   0.000 -11.417   0.000
 total augmentation occupancy for first ion, spin component:           1
  1.085  -0.104  -0.256  -0.322   0.345   0.102   0.125  -0.122
 -0.104   0.376   0.111   0.142  -0.162  -0.039  -0.046   0.041
 -0.256   0.111   1.924   1.040   0.434  -0.205  -0.295  -0.151
 -0.322   0.142   1.040   1.742  -0.104  -0.295  -0.143   0.013
  0.345  -0.162   0.434  -0.104   3.039  -0.151   0.013  -0.557
  0.102  -0.039  -0.205  -0.295  -0.151   0.107   0.023   0.036
  0.125  -0.046  -0.295  -0.143   0.013   0.023   0.093   0.016
 -0.122   0.041  -0.151   0.013  -0.557   0.036   0.016   0.156
 total augmentation occupancy for first ion, spin component:           2
 -0.000   0.000   0.000   0.000   0.000  -0.000  -0.000  -0.000
  0.000   0.000  -0.000   0.000  -0.000  -0.000   0.000   0.000
  0.000  -0.000   0.000   0.000  -0.000  -0.000  -0.000  -0.000
  0.000   0.000   0.000  -0.000  -0.000  -0.000   0.000   0.000
  0.000  -0.000  -0.000  -0.000  -0.000   0.000   0.000   0.000
 -0.000  -0.000  -0.000  -0.000   0.000   0.000  -0.000  -0.000
 -0.000   0.000  -0.000   0.000   0.000  -0.000   0.000  -0.000
 -0.000   0.000  -0.000   0.000   0.000  -0.000  -0.000  -0.000


------------------------ aborting loop because EDIFF is reached ----------------------------------------


    CHARGE:  cpu time    5.13: real time    5.16
    FORLOC:  cpu time    0.70: real time    0.70
    FORNL :  cpu time   19.41: real time   19.49
    STRESS:  cpu time   61.07: real time   61.31
    FORCOR:  cpu time    4.35: real time    4.39
    FORHAR:  cpu time    1.00: real time    1.00
    MIXING:  cpu time    0.21: real time    0.21
    OFIELD:  cpu time    0.00: real time    0.00

  FORCE on cell =-STRESS in cart. coord.  units (eV):
  Direction    XX          YY          ZZ          XY          YZ          ZX
  --------------------------------------------------------------------------------------
  Alpha Z    12.91688    12.91688    12.91688
  Ewald   11234.07719  5565.31387  6488.70721   397.60488 -1535.25854   889.10499
  Hartree 12570.55131  7789.58490  8768.03476   103.83606 -1425.30607   712.86979
  E(xc)    -688.90085  -691.47122  -692.14012     1.44705    -0.04516     0.66112
  Local  -26174.33318-15759.82349-17682.40922  -478.49984  2959.89010 -1602.47510
  n-local   -28.57861   -28.62937   -32.19129     3.61807    -1.00908    -0.85915
  augment    82.72147    84.28417    83.25083     1.43518     0.50805     0.57914
  Kinetic  2975.83505  3013.51523  3039.58495   -29.93479    -0.23242     0.14262
  Fock        0.00000     0.00000     0.00000     0.00000     0.00000     0.00000
  -------------------------------------------------------------------------------------
  Total     -15.71073   -14.30902   -14.24601    -0.49340    -1.45312     0.02341
  in kB      -3.14642    -2.86570    -2.85308    -0.09882    -0.29102     0.00469
  external pressure =       -2.96 kB  Pullay stress =        0.00 kB


 VOLUME and BASIS-vectors are now :
 -----------------------------------------------------------------------------
  energy-cutoff  :      700.00
  volume of cell :     8000.00
      direct lattice vectors                 reciprocal lattice vectors
    20.000000000  0.000000000  0.000000000     0.050000000  0.000000000  0.000000000
     0.000000000 20.000000000  0.000000000     0.000000000  0.050000000  0.000000000
     0.000000000  0.000000000 20.000000000     0.000000000  0.000000000  0.050000000

  length of vectors
    20.000000000 20.000000000 20.000000000     0.050000000  0.050000000  0.050000000


 FORCES acting on ions
    electron-ion (+dipol)            ewald-force                    non-local-force                 convergence-correction
 -----------------------------------------------------------------------------------------------
   0.363E+03 -.387E+02 -.131E+03   -.365E+03 0.390E+02 0.131E+03   0.289E+01 -.431E+00 -.105E+01   -.156E-04 -.209E-04 -.240E-05
   0.874E+02 -.925E+01 0.333E+03   -.881E+02 0.952E+01 -.335E+03   0.603E+00 -.294E+00 0.183E+01   -.628E-05 0.763E-05 -.504E-04
   0.673E+02 0.804E+02 0.318E+03   -.693E+02 -.824E+02 -.325E+03   0.203E+01 0.196E+01 0.633E+01   -.376E-05 -.245E-04 -.137E-04
   0.304E+01 -.318E+03 0.300E+02   -.326E+01 0.325E+03 -.296E+02   0.233E+00 -.691E+01 -.460E+00   0.152E-05 0.190E-04 0.784E-05
   0.358E+02 -.326E+03 0.105E+03   -.361E+02 0.327E+03 -.106E+03   0.314E+00 -.179E+01 0.637E+00   0.433E-05 0.346E-04 -.177E-04
   0.800E+02 -.208E+03 0.264E+03   -.805E+02 0.209E+03 -.265E+03   0.509E+00 -.116E+01 0.143E+01   -.997E-06 0.428E-04 -.468E-04
   0.743E+02 0.268E+03 -.218E+03   -.746E+02 -.269E+03 0.220E+03   0.352E+00 0.149E+01 -.145E+01   0.129E-04 -.322E-04 0.249E-04
   0.150E+03 0.256E+03 -.164E+03   -.154E+03 -.260E+03 0.168E+03   0.365E+01 0.478E+01 -.393E+01   0.268E-05 -.128E-04 0.156E-04
   -.226E+03 0.123E+03 -.137E+03   0.232E+03 -.124E+03 0.140E+03   -.533E+01 0.116E+01 -.281E+01   0.171E-04 -.485E-05 0.640E-06
   -.258E+03 0.143E+03 -.181E+03   0.259E+03 -.145E+03 0.183E+03   -.125E+01 0.128E+01 -.169E+01   0.280E-04 -.287E-04 0.163E-04
   -.338E+03 -.697E+02 -.868E+00   0.340E+03 0.702E+02 0.785E+00   -.192E+01 -.525E+00 0.627E-01   0.333E-04 0.176E-04 -.659E-05
   -.258E+03 -.192E+03 0.137E+03   0.259E+03 0.194E+03 -.138E+03   -.155E+01 -.121E+01 0.751E+00   0.329E-04 0.123E-04 -.672E-05
   -.181E+03 -.214E+03 0.187E+03   0.185E+03 0.219E+03 -.191E+03   -.345E+01 -.511E+01 0.407E+01   0.194E-04 0.100E-05 -.704E-05
   -.265E+03 0.636E+02 -.921E+02   0.270E+03 -.656E+02 0.950E+02   -.492E+01 0.194E+01 -.294E+01   0.139E-04 0.334E-05 -.101E-04
   -.315E+03 0.612E+02 -.112E+03   0.317E+03 -.610E+02 0.113E+03   -.235E+01 -.162E+00 -.394E+00   0.278E-04 0.397E-05 -.408E-05
   -.122E+03 0.232E+03 -.238E+03   0.123E+03 -.233E+03 0.240E+03   -.653E+00 0.136E+01 -.155E+01   0.179E-04 -.414E-04 0.276E-04
   0.262E+03 -.306E+02 -.103E+03   -.262E+03 0.336E+02 0.105E+03   -.635E+00 -.305E+01 -.269E+01   -.593E-04 0.243E-04 0.267E-04
   0.126E+03 -.218E+03 -.261E+03   -.127E+03 0.220E+03 0.263E+03   0.498E+00 -.157E+01 -.183E+01   -.159E-04 0.373E-04 0.364E-04
   -.749E+02 -.256E+03 -.246E+03   0.754E+02 0.257E+03 0.248E+03   -.567E+00 -.152E+01 -.154E+01   -.169E-04 0.183E-04 0.192E-04
   -.158E+03 -.237E+03 -.197E+03   0.163E+03 0.242E+03 0.201E+03   -.448E+01 -.480E+01 -.408E+01   -.135E-04 -.929E-05 0.325E-05
   0.230E+03 -.968E+02 -.158E+03   -.234E+03 0.989E+02 0.162E+03   0.449E+01 -.200E+01 -.344E+01   0.747E-06 0.727E-05 0.152E-05
   0.264E+03 -.126E+03 -.202E+03   -.265E+03 0.127E+03 0.204E+03   0.630E+00 -.158E+01 -.196E+01   -.120E-04 0.227E-04 0.209E-04
   0.146E+03 0.266E+03 0.194E+03   -.148E+03 -.271E+03 -.199E+03   0.249E+01 0.513E+01 0.442E+01   -.429E-04 -.340E-04 -.326E-04
   0.241E+03 0.226E+03 0.146E+03   -.242E+03 -.228E+03 -.147E+03   0.110E+01 0.201E+01 0.170E+01   -.501E-04 -.141E-04 -.478E-05
   0.342E+03 0.103E+03 0.925E+01   -.345E+03 -.107E+03 -.118E+02   0.396E+01 0.407E+01 0.307E+01   -.163E-04 -.122E-04 0.129E-04
   0.451E+02 0.805E+02 -.636E+02   -.487E+02 -.844E+02 0.665E+02   0.362E+01 0.381E+01 -.289E+01   0.194E-06 -.138E-04 0.986E-05
   -.418E+02 0.695E+02 -.756E+02   0.442E+02 -.731E+02 0.798E+02   -.243E+01 0.361E+01 -.418E+01   0.525E-05 -.143E-04 0.102E-04
   -.993E+02 0.278E+02 -.485E+02   0.105E+03 -.276E+02 0.497E+02   -.582E+01 -.257E+00 -.124E+01   0.852E-05 -.706E-05 0.375E-05
   -.408E+02 0.149E+03 0.160E+02   0.426E+02 -.157E+03 -.126E+02   -.180E+01 0.756E+01 -.335E+01   -.110E-05 0.555E-05 0.597E-06
   0.101E+03 -.230E+02 -.523E+02   -.107E+03 0.227E+02 0.536E+02   0.578E+01 0.369E+00 -.124E+01   -.507E-05 0.492E-05 0.630E-05
   0.796E+02 0.680E+02 -.317E+02   -.855E+02 -.682E+02 0.304E+02   0.583E+01 0.147E+00 0.131E+01   -.174E-05 -.235E-05 0.231E-05
   0.266E+02 -.664E+02 0.814E+02   -.281E+02 0.701E+02 -.859E+02   0.154E+01 -.372E+01 0.448E+01   -.258E-05 0.159E-04 -.209E-04
   0.584E+01 -.110E+03 0.890E+01   -.580E+01 0.116E+03 -.783E+01   -.372E-01 -.588E+01 -.107E+01   0.598E-06 0.185E-04 -.595E-05
   -.143E+02 -.101E+03 -.343E+02   0.159E+02 0.103E+03 0.397E+02   -.155E+01 -.210E+01 -.538E+01   0.224E-06 0.160E-05 0.547E-05
   -.101E+03 0.258E+02 0.116E+03   0.108E+03 -.236E+02 -.121E+03   -.652E+01 -.228E+01 0.485E+01   -.231E-05 0.245E-05 0.376E-05
   -.915E+02 0.385E+02 -.535E+02   0.948E+02 -.417E+02 0.573E+02   -.330E+01 0.324E+01 -.376E+01   0.737E-05 -.271E-05 0.163E-05
   -.660E+02 -.714E+02 0.547E+02   0.685E+02 0.756E+02 -.581E+02   -.245E+01 -.426E+01 0.345E+01   0.109E-04 0.590E-05 -.398E-05
   0.173E+02 0.710E+02 0.886E+02   -.173E+02 -.770E+02 -.893E+02   0.312E-01 0.595E+01 0.733E+00   0.145E-06 -.129E-04 -.259E-05
   0.392E+01 0.906E+02 0.776E+02   -.264E+00 -.936E+02 -.814E+02   -.365E+01 0.303E+01 0.379E+01   -.453E-05 -.393E-05 -.499E-05
   0.602E+02 0.775E+02 0.575E+02   -.626E+02 -.818E+02 -.611E+02   0.227E+01 0.430E+01 0.360E+01   -.952E-05 -.615E-05 -.345E-05
   -.105E+03 -.197E+02 -.451E+01   0.111E+03 0.206E+02 0.498E+01   -.592E+01 -.948E+00 -.466E+00   0.976E-05 0.553E-05 -.223E-05
   -.838E+02 -.640E+02 -.382E+02   0.897E+02 0.643E+02 0.369E+02   -.591E+01 -.247E+00 0.131E+01   -.567E-05 -.134E-05 0.273E-05
   0.285E+02 0.211E+02 0.104E+03   -.300E+02 -.236E+02 -.110E+03   0.152E+01 0.241E+01 0.526E+01   -.385E-05 -.212E-05 -.236E-04
   -.454E+02 -.784E+02 -.699E+02   0.490E+02 0.822E+02 0.730E+02   -.360E+01 -.375E+01 -.305E+01   -.274E-05 0.101E-04 0.970E-05
   0.985E+02 -.368E+02 -.587E+02   -.101E+03 0.394E+02 0.618E+02   0.360E+01 -.329E+01 -.392E+01   0.323E-05 -.611E-05 -.228E-05
   0.106E+03 0.261E+02 -.178E+01   -.112E+03 -.272E+02 0.216E+01   0.600E+01 0.116E+01 -.251E+00   0.910E-06 -.724E-05 -.146E-06
   -.229E+02 -.759E+02 0.739E+02   0.195E+02 0.790E+02 -.777E+02   0.343E+01 -.318E+01 0.379E+01   0.850E-05 -.617E-06 -.582E-06
   0.431E+02 -.660E+02 -.806E+02   -.456E+02 0.694E+02 0.849E+02   0.248E+01 -.343E+01 -.431E+01   -.433E-05 0.104E-04 0.105E-04
   0.297E+02 -.139E+03 0.223E+03   -.247E+02 0.127E+03 -.208E+03   -.505E+01 0.122E+02 -.148E+02   0.104E-04 -.787E-05 0.278E-04
   0.229E+03 0.165E+03 0.637E+02   -.207E+03 -.161E+03 -.658E+02   -.224E+02 -.333E+01 0.212E+01   -.129E-04 0.176E-04 0.847E-05
   -.419E+02 0.233E+03 -.159E+03   0.336E+02 -.222E+03 0.146E+03   0.840E+01 -.115E+02 0.132E+02   -.308E-05 0.558E-05 -.972E-05
   0.374E+02 -.197E+03 -.198E+03   -.287E+02 0.187E+03 0.185E+03   -.858E+01 0.945E+01 0.128E+02   0.129E-04 0.138E-04 0.158E-04
   -.252E+03 -.953E+02 0.678E+02   0.233E+03 0.930E+02 -.695E+02   0.199E+02 0.235E+01 0.171E+01   0.601E-05 0.156E-05 -.129E-04
   -.124E+03 0.404E+03 0.422E+03   0.842E+02 -.387E+03 -.425E+03   0.393E+02 -.173E+02 0.246E+01   -.138E-04 0.301E-04 0.123E-04
   -.788E+02 0.130E+03 0.230E+03   0.780E+02 -.127E+03 -.226E+03   0.663E+00 -.307E+01 -.386E+01   0.234E-04 -.220E-04 0.546E-05
 -----------------------------------------------------------------------------------------------
   -.219E+02 0.159E+02 -.350E+01   -.142E-12 0.284E-13 -.540E-12   0.219E+02 -.159E+02 0.350E+01   -.585E-05 0.562E-04 0.542E-04
 
 
 POSITION                                       TOTAL-FORCE (eV/Angst)
 -----------------------------------------------------------------------------------
      5.86694      9.53439     11.36602         0.128261     -0.113329     -0.137787
      8.75875     11.31222      6.55140        -0.014000     -0.023772     -0.007318
      9.11624     10.48468      7.61029        -0.003992     -0.004772     -0.000739
      9.47459     12.30603      8.99730         0.006047      0.003386      0.014072
      9.11904     13.19266      7.98704        -0.000020      0.013910      0.011946
      8.75715     12.69444      6.73519         0.005675      0.002093      0.006648
     10.46158      6.59100     13.49490        -0.016510     -0.009036      0.008701
      9.94203      7.43809     12.52376         0.034808      0.019160     -0.020979
     12.04547      8.38666     12.11872        -0.015355     -0.001962      0.001128
     12.61928      7.55238     13.08448        -0.000755      0.012214     -0.007961
     14.79299     10.57118     10.69264        -0.021970      0.014603     -0.020850
     14.01643     11.32257      9.80881         0.027182     -0.006972      0.015482
     12.65158     11.07272      9.73048        -0.068699      0.000293     -0.016170
     12.79043      9.38554     11.34657        -0.026769     -0.000495     -0.005865
     14.16878      9.59490     11.46294        -0.013197     -0.004375      0.004438
     11.82695      6.64488     13.78060        -0.017411      0.001064     -0.006768
      7.24231      9.77330     11.28348        -0.674721     -0.020683      0.118909
      8.15819     12.44233     13.81164        -0.037300      0.035313      0.047202
      9.52399     12.52132     13.53212        -0.060936     -0.006012      0.011346
     10.05904     11.71816     12.53361        -0.018345     -0.065400     -0.055094
      7.96508     10.76003     12.08522        -0.170700      0.074565      0.106582
      7.38092     11.55121     13.07965        -0.041714     -0.051557     -0.045782
      7.45796      8.11597      9.64469        -0.247541     -0.057762     -0.011486
      6.09730      7.83470      9.68863         0.102343      0.040832      0.017314
      5.28440      8.55710     10.56432         0.396619      0.593964      0.478221
      9.79795      5.90212     14.01497         0.001399     -0.006485      0.004696
     12.26685      5.99367     14.53463        -0.000698     -0.005009      0.004200
     13.68484      7.61538     13.29576        -0.002561     -0.000718      0.002227
     10.84507      7.24677      9.22597         0.036829     -0.024042     -0.006332
      6.31582     11.46138     13.28407        -0.027926      0.050280      0.056811
      8.88327      7.42377     12.27295         0.003766     -0.027699      0.018424
      8.47853     13.36665      5.92453         0.000104      0.005685     -0.002974
      9.12855     14.26265      8.19005         0.006261      0.002247     -0.001209
      9.76183     12.67176      9.98145         0.011122      0.016345     -0.010676
     11.38256      8.36174      8.29610         0.014613     -0.005045     -0.030311
     14.75349      8.99278     12.15530         0.001869      0.000607      0.000767
     14.45552     12.09620      9.18096        -0.001161      0.002050     -0.005191
      9.11405      9.40258      7.49376         0.013856     -0.008409     -0.022719
      8.12287      7.57771      8.97051         0.001342     -0.003832     -0.004289
      5.68876      7.06123      9.04041        -0.064420      0.025439      0.041595
     15.86530     10.74076     10.77851         0.000487      0.002762      0.000793
     11.11794     11.75383     12.28812        -0.003039     -0.007313     -0.006200
      8.48240     10.86572      5.59722        -0.002139      0.000772     -0.000070
     10.17895     13.19691     14.08003        -0.002004      0.008745      0.006821
      5.25320     10.11370     12.05309         0.655475     -0.642103     -0.762486
      4.21445      8.36275     10.62101         0.005016      0.128228      0.120327
     12.01813     11.63958      9.05085         0.011301      0.001862     -0.005611
      7.70887     13.05934     14.58823        -0.005874      0.002294      0.003166
      9.48490     10.95884      8.82805         0.005862      0.056943     -0.074339
      8.03610      9.06122     10.42169         0.065389      0.147586      0.113251
     10.70414      8.32170     11.83465         0.082384     -0.075782      0.072764
      9.30896     10.85100     11.80824         0.085158     -0.152476     -0.150040
     12.02768     10.13012     10.47953         0.093252      0.020482      0.000790
     10.61480      8.11252      8.84309        -0.038922      0.046583      0.072825
     10.01771      9.61740     10.38685        -0.197740     -0.005271      0.057801
 -----------------------------------------------------------------------------------
    total drift:                                0.006881     -0.003228      0.002502


--------------------------------------------------------------------------------------------------------



  FREE ENERGIE OF THE ION-ELECTRON SYSTEM (eV)
  ---------------------------------------------------
  free  energy   TOTEN  =      -377.39871532 eV

  energy  without entropy=     -377.39871532  energy(sigma->0) =     -377.39871532
 


--------------------------------------------------------------------------------------------------------


    POTLOK:  cpu time    7.48: real time    7.53


--------------------------------------------------------------------------------------------------------


 writing wavefunctions
     LOOP+:  cpu time 1039.44: real time 1082.09
    4ORBIT:  cpu time    0.00: real time    0.00

 total amount of memory used by VASP on root node   877132. kBytes
========================================================================

   base      :      30000. kBytes
   nonlr-proj:      19361. kBytes
   fftplans  :     269516. kBytes
   grid      :     534988. kBytes
   one-center:       1710. kBytes
   wavefun   :      21557. kBytes
 
  
  
 General timing and accounting informations for this job:
 ========================================================
  
                  Total CPU time used (sec):     1302.229
                            User time (sec):     1148.057
                          System time (sec):      154.172
                         Elapsed time (sec):     1348.822
  
                   Maximum memory used (kb):     1489936.
                   Average memory used (kb):           0.
  
                          Minor page faults:      7039491
                          Major page faults:            2
                 Voluntary context switches:       286660
