<?xml version="1.0" encoding="ISO-8859-1"?>
<modeling>
 <generator>
  <i name="program" type="string">vasp </i>
  <i name="version" type="string">5.3.5  </i>
  <i name="subversion" type="string">31Mar14 (build Apr 08 2014 12:00:03) complex                          parallel </i>
  <i name="platform" type="string">NSC-NSCPATCH-BUILD02 </i>
  <i name="date" type="string">2017 03 15 </i>
  <i name="time" type="string">18:38:23 </i>
 </generator>
 <incar>
  <i type="string" name="SYSTEM"> c2_oh2_ruthenium_mol</i>
  <i type="int" name="ISTART">     0</i>
  <i type="string" name="PREC">accurate</i>
  <i type="int" name="IALGO">    38</i>
  <i type="logical" name="ADDGRID"> T  </i>
  <i type="int" name="ISPIN">     2</i>
  <i name="BMIX">      2.00000000</i>
  <i type="int" name="ICHARG">     2</i>
  <i name="EDIFF">      0.00001000</i>
  <i name="EDIFFG">     -0.01000000</i>
  <i name="ENCUT">    700.00000000</i>
  <i name="POTIM">      0.50000000</i>
  <i name="NUPDOWN">      0.00000000</i>
  <i name="NELECT">    166.00000000</i>
  <i type="string" name="LREAL"> Auto</i>
  <i name="TIME">      0.05000000</i>
  <i type="int" name="ISMEAR">     0</i>
  <i name="SIGMA">      0.01000000</i>
  <i type="int" name="ICORELEVEL">     2</i>
  <i type="int" name="CLNT">     1</i>
  <i type="int" name="CLN">     1</i>
  <i type="int" name="INCAR     ">     0</i>
  <i name="CLZ">      0.50000000</i>
 </incar>
 <kpoints>
  <generation param="Monkhorst-Pack">
   <v type="int" name="divisions">       1        1        1 </v>
   <v name="usershift">      0.00000000       0.00000000       0.00000000 </v>
   <v name="genvec1">      1.00000000       0.00000000       0.00000000 </v>
   <v name="genvec2">      0.00000000       1.00000000       0.00000000 </v>
   <v name="genvec3">      0.00000000       0.00000000       1.00000000 </v>
   <v name="shift">      0.00000000       0.00000000       0.00000000 </v>
  </generation>
  <varray name="kpointlist" >
   <v>       0.00000000       0.00000000       0.00000000 </v>
  </varray>
  <varray name="weights" >
   <v>       1.00000000 </v>
  </varray>
 </kpoints>
 <parameters>
  <separator name="general" >
   <i type="string" name="SYSTEM">c2_oh2_ruthenium_mol</i>
   <i type="logical" name="LCOMPAT"> F  </i>
  </separator>
  <separator name="electronic" >
   <i type="string" name="PREC">accura</i>
   <i name="ENMAX">    700.00000000</i>
   <i name="ENAUG">    946.76800000</i>
   <i name="EDIFF">      0.00001000</i>
   <i type="int" name="IALGO">    38</i>
   <i type="int" name="IWAVPR">    10</i>
   <i type="int" name="NBANDS">   128</i>
   <i name="NELECT">    166.00000000</i>
   <i type="int" name="TURBO">     0</i>
   <i type="int" name="IRESTART">     0</i>
   <i type="int" name="NREBOOT">     0</i>
   <i type="int" name="NMIN">     0</i>
   <i name="EREF">      0.00000000</i>
   <separator name="electronic smearing" >
    <i type="int" name="ISMEAR">     0</i>
    <i name="SIGMA">      0.01000000</i>
    <i name="KSPACING">      0.50000000</i>
    <i type="logical" name="KGAMMA"> T  </i>
   </separator>
   <separator name="electronic projectors" >
    <i type="logical" name="LREAL"> T  </i>
    <v name="ROPT">     -0.00025000     -0.00025000     -0.00025000     -0.00025000     -0.00025000     -0.00025000</v>
    <i type="int" name="LMAXPAW">  -100</i>
    <i type="int" name="LMAXMIX">     2</i>
    <i type="logical" name="NLSPLINE"> F  </i>
   </separator>
   <separator name="electronic startup" >
    <i type="int" name="ISTART">     0</i>
    <i type="int" name="ICHARG">     2</i>
    <i type="int" name="INIWAV">     1</i>
   </separator>
   <separator name="electronic spin" >
    <i type="int" name="ISPIN">     2</i>
    <i type="logical" name="LNONCOLLINEAR"> F  </i>
    <v name="MAGMOM">      0.00000000      0.00000000      0.00000000      0.00000000      0.00000000      0.00000000      0.00000000      0.00000000      0.00000000      0.00000000      0.00000000      0.00000000      0.00000000      0.00000000      0.00000000      0.00000000      0.00000000      0.00000000      0.00000000      0.00000000
      0.00000000      0.00000000      0.00000000      0.00000000      0.00000000      0.00000000      0.00000000      0.00000000      0.00000000      0.00000000      0.00000000      0.00000000      0.00000000      0.00000000      0.00000000      0.00000000      0.00000000      0.00000000      0.00000000      0.00000000
      0.00000000      0.00000000      0.00000000      0.00000000      0.00000000      0.00000000      0.00000000      0.00000000      0.00000000      0.00000000      0.00000000      0.00000000      0.00000000      0.00000000      0.00000000</v>
    <i name="NUPDOWN">      0.00000000</i>
    <i type="logical" name="LSORBIT"> F  </i>
    <v name="SAXIS">      0.00000000      0.00000000      1.00000000</v>
    <i type="logical" name="LSPIRAL"> F  </i>
    <v name="QSPIRAL">      0.00000000      0.00000000      0.00000000</v>
    <i type="logical" name="LZEROZ"> F  </i>
   </separator>
   <separator name="electronic exchange-correlation" >
    <i type="logical" name="LASPH"> F  </i>
    <i type="logical" name="LMETAGGA"> F  </i>
   </separator>
   <separator name="electronic convergence" >
    <i type="int" name="NELM">    60</i>
    <i type="int" name="NELMDL">    -5</i>
    <i type="int" name="NELMIN">     2</i>
    <i name="ENINI">    700.00000000</i>
    <separator name="electronic convergence detail" >
     <i type="logical" name="LDIAG"> T  </i>
     <i type="logical" name="LSUBROT"> F  </i>
     <i name="WEIMIN">      0.00000000</i>
     <i name="EBREAK">      0.00000002</i>
     <i name="DEPER">      0.30000000</i>
     <i type="int" name="NRMM">     4</i>
     <i name="TIME">      0.05000000</i>
    </separator>
   </separator>
   <separator name="electronic mixer" >
    <i name="AMIX">      0.40000000</i>
    <i name="BMIX">      2.00000000</i>
    <i name="AMIN">      0.10000000</i>
    <i name="AMIX_MAG">      1.60000000</i>
    <i name="BMIX_MAG">      2.00000000</i>
    <separator name="electronic mixer details" >
     <i type="int" name="IMIX">     4</i>
     <i type="int" name="MAXMIX">   -45</i>
     <i name="WC">    100.00000000</i>
     <i type="int" name="INIMIX">     1</i>
     <i type="int" name="MIXPRE">     1</i>
     <i type="int" name="MREMOVE">     5</i>
    </separator>
   </separator>
   <separator name="electronic dipolcorrection" >
    <i type="logical" name="LDIPOL"> F  </i>
    <i type="logical" name="LMONO"> F  </i>
    <i type="int" name="IDIPOL">     0</i>
    <i name="EPSILON">      1.00000000</i>
    <v name="DIPOL">   -100.00000000   -100.00000000   -100.00000000</v>
    <i name="EFIELD">      0.00000000</i>
   </separator>
  </separator>
  <separator name="grids" >
   <i type="int" name="NGX">   180</i>
   <i type="int" name="NGY">   180</i>
   <i type="int" name="NGZ">   180</i>
   <i type="int" name="NGXF">   360</i>
   <i type="int" name="NGYF">   360</i>
   <i type="int" name="NGZF">   360</i>
   <i type="logical" name="ADDGRID"> T  </i>
  </separator>
  <separator name="ionic" >
   <i type="int" name="NSW">     0</i>
   <i type="int" name="IBRION">    -1</i>
   <i type="int" name="ISIF">     2</i>
   <i name="PSTRESS">      0.00000000</i>
   <i name="EDIFFG">     -0.01000000</i>
   <i type="int" name="NFREE">     0</i>
   <i name="POTIM">      0.50000000</i>
   <i name="SMASS">     -3.00000000</i>
   <i name="SCALEE">      1.00000000</i>
  </separator>
  <separator name="ionic md" >
   <i name="TEBEG">      0.00010000</i>
   <i name="TEEND">      0.00010000</i>
   <i type="int" name="NBLOCK">     1</i>
   <i type="int" name="KBLOCK">     1</i>
   <i type="int" name="NPACO">   256</i>
   <i name="APACO">     16.00000000</i>
  </separator>
  <separator name="symmetry" >
   <i type="int" name="ISYM">     2</i>
   <i name="SYMPREC">      0.00001000</i>
  </separator>
  <separator name="dos" >
   <i type="logical" name="LORBIT"> F  </i>
   <v name="RWIGS">     -1.00000000     -1.00000000     -1.00000000     -1.00000000     -1.00000000     -1.00000000</v>
   <i type="int" name="NEDOS">   301</i>
   <i name="EMIN">     10.00000000</i>
   <i name="EMAX">    -10.00000000</i>
   <i name="EFERMI">      0.00000000</i>
  </separator>
  <separator name="writing" >
   <i type="int" name="NWRITE">     2</i>
   <i type="logical" name="LWAVE"> T  </i>
   <i type="logical" name="LCHARG"> T  </i>
   <i type="logical" name="LPARD"> F  </i>
   <i type="logical" name="LVTOT"> F  </i>
   <i type="logical" name="LVHAR"> F  </i>
   <i type="logical" name="LELF"> F  </i>
   <i type="logical" name="LOPTICS"> F  </i>
   <v name="STM">      0.00000000      0.00000000      0.00000000      0.00000000      0.00000000      0.00000000      0.00000000</v>
  </separator>
  <separator name="performance" >
   <i type="int" name="NPAR">    64</i>
   <i type="int" name="NSIM">     4</i>
   <i type="int" name="NBLK">    -1</i>
   <i type="logical" name="LPLANE"> T  </i>
   <i type="logical" name="LSCALAPACK"> T  </i>
   <i type="logical" name="LSCAAWARE"> F  </i>
   <i type="logical" name="LSCALU"> F  </i>
   <i type="logical" name="LASYNC"> F  </i>
   <i type="logical" name="LORBITALREAL"> F  </i>
  </separator>
  <separator name="miscellaneous" >
   <i type="int" name="IDIOT">     3</i>
   <i type="logical" name="LMUSIC"> F  </i>
   <v name="POMASS">     12.01100000     12.01100000      1.00000000     14.00100000     16.00000000    101.07000000</v>
   <v name="DARWINR">      0.00000000      0.00000000      0.00000000      0.00000000      0.00000000      0.00000000</v>
   <v name="DARWINV">      1.00000000      1.00000000      1.00000000      1.00000000      1.00000000      1.00000000</v>
   <i type="logical" name="LCORR"> T  </i>
  </separator>
  <i type="logical" name="GGA_COMPAT"> T  </i>
  <i type="logical" name="LBERRY"> F  </i>
  <i type="int" name="ICORELEVEL">     2</i>
  <i type="int" name="CLNT">     1</i>
  <i type="int" name="CLN">     1</i>
  <i type="int" name="CLL">     0</i>
  <i name="CLZ">      0.50000000</i>
  <i type="logical" name="LDAU"> F  </i>
  <i type="int" name="I_CONSTRAINED_M">     0</i>
  <separator name="electronic exchange-correlation" >
   <i type="string" name="GGA">--</i>
   <i type="int" name="VOSKOWN">     0</i>
   <i type="logical" name="LHFCALC"> F  </i>
   <i type="string" name="PRECFOCK"></i>
   <i type="logical" name="LSYMGRAD"> F  </i>
   <i type="logical" name="LHFONE"> F  </i>
   <i type="logical" name="LRHFCALC"> F  </i>
   <i type="logical" name="LTHOMAS"> F  </i>
   <i type="logical" name="LMODELHF"> F  </i>
   <i name="ENCUT4O">     -1.00000000</i>
   <i type="int" name="EXXOEP">     0</i>
   <i type="int" name="FOURORBIT">     0</i>
   <i name="AEXX">      0.00000000</i>
   <i name="HFALPHA">      0.00000000</i>
   <i name="MCALPHA">      0.00000000</i>
   <i name="ALDAX">      1.00000000</i>
   <i name="AGGAX">      1.00000000</i>
   <i name="ALDAC">      1.00000000</i>
   <i name="AGGAC">      1.00000000</i>
   <i type="int" name="NKREDX">     1</i>
   <i type="int" name="NKREDY">     1</i>
   <i type="int" name="NKREDZ">     1</i>
   <i type="logical" name="SHIFTRED"> F  </i>
   <i type="logical" name="ODDONLY"> F  </i>
   <i type="logical" name="EVENONLY"> F  </i>
   <i type="int" name="LMAXFOCK">     0</i>
   <i type="int" name="NMAXFOCKAE">     0</i>
   <i type="logical" name="LFOCKAEDFT"> F  </i>
   <i name="HFSCREEN">      0.00000000</i>
   <i name="HFSCREENC">      0.00000000</i>
   <i type="int" name="NBANDSGWLOW">     0</i>
  </separator>
  <separator name="vdW DFT" >
   <i type="logical" name="LUSE_VDW"> F  </i>
   <i name="Zab_VDW">     -0.84910000</i>
   <i name="PARAM1">      0.12340000</i>
   <i name="PARAM2">      1.00000000</i>
   <i name="PARAM3">      0.00000000</i>
  </separator>
  <separator name="model GW" >
   <i type="int" name="MODEL_GW">     0</i>
   <i name="MODEL_EPS0">     87.27272727</i>
   <i name="MODEL_ALPHA">      1.00000000</i>
  </separator>
  <separator name="linear response parameters" >
   <i type="logical" name="LEPSILON"> F  </i>
   <i type="logical" name="LRPA"> F  </i>
   <i type="logical" name="LNABLA"> F  </i>
   <i type="logical" name="LVEL"> F  </i>
   <i type="int" name="KINTER">     0</i>
   <i name="CSHIFT">      0.10000000</i>
   <i name="OMEGAMAX">     -1.00000000</i>
   <i name="DEG_THRESHOLD">      0.00200000</i>
  </separator>
  <separator name="orbital magnetization" >
   <i type="logical" name="NUCIND"> F  </i>
   <v name="MAGPOS">      0.00000000      0.00000000      0.00000000</v>
   <i type="logical" name="LNICSALL"> T  </i>
   <i type="logical" name="ORBITALMAG"> F  </i>
   <i type="logical" name="LMAGBLOCH"> F  </i>
   <i type="logical" name="LCHIMAG"> F  </i>
   <i type="logical" name="LGAUGE"> T  </i>
   <i type="int" name="MAGATOM">     0</i>
   <v name="MAGDIPOL">      0.00000000      0.00000000      0.00000000</v>
   <v name="AVECCONST">      0.00000000      0.00000000      0.00000000</v>
  </separator>
  <separator name="response functions" >
   <i type="logical" name="LADDER"> F  </i>
   <i type="logical" name="LFXC"> F  </i>
   <i type="logical" name="LHARTREE"> T  </i>
   <i type="int" name="IBSE">     0</i>
   <i type="logical" name="LTCTE"> F  </i>
   <i type="logical" name="LTETE"> F  </i>
   <i type="logical" name="LTRIPLET"> F  </i>
   <i type="logical" name="LFXCEPS"> F  </i>
   <i type="logical" name="LFXHEG"> F  </i>
   <i type="logical" name="L2ORDER"> F  </i>
   <i type="logical" name="LUSEW"> F  </i>
   <i name="ENCUTGW">     -2.00000000</i>
   <i name="ENCUTGWSOFT">     -2.00000000</i>
   <i name="ENCUTLF">     -1.00000000</i>
   <i type="int" name="LMAXMP2">    -1</i>
   <i name="SCISSOR">      0.00000000</i>
   <i type="int" name="NOMEGA">     0</i>
   <i type="int" name="NOMEGAR">     0</i>
   <i type="int" name="NBANDSGW">    -1</i>
   <i type="int" name="NBANDSO">    -1</i>
   <i type="int" name="NBANDSV">    -1</i>
   <i type="int" name="NELM">     1</i>
   <i type="int" name="DIM">     3</i>
   <i type="int" name="ANTIRES">     0</i>
   <i name="OMEGAMAX">    -30.00000000</i>
   <i name="OMEGAMIN">    -30.00000000</i>
   <i name="OMEGATL">   -200.00000000</i>
   <i type="int" name="OMEGAGRID">     0</i>
   <i name="CSHIFT">     -0.10000000</i>
   <i type="logical" name="SELFENERGY"> F  </i>
   <i type="logical" name="LSPECTRAL"> F  </i>
   <i type="logical" name="ODDONLYGW"> F  </i>
   <i type="logical" name="EVENONLYGW"> F  </i>
   <i type="int" name="NKREDLFX">     1</i>
   <i type="int" name="NKREDLFY">     1</i>
   <i type="int" name="NKREDLFZ">     1</i>
   <i type="int" name="MAXMEM">  1800</i>
   <i type="int" name="TELESCOPE">     0</i>
   <i type="int" name="TAUPAR">     1</i>
  </separator>
  <separator name="External order field" >
   <i name="OFIELD_KAPPA">      0.00000000</i>
   <v name="OFIELD_K">      0.00000000      0.00000000      0.00000000</v>
   <i name="OFIELD_Q6_NEAR">      0.00000000</i>
   <i name="OFIELD_Q6_FAR">      0.00000000</i>
   <i name="OFIELD_A">      0.00000000</i>
  </separator>
 </parameters>
 <atominfo>
  <atoms>      55 </atoms>
  <types>       6 </types>
  <array name="atoms" >
   <dimension dim="1">ion</dimension>
   <field type="string">element</field>
   <field type="int">atomtype</field>
   <set>
    <rc><c>C </c><c>   1</c></rc>
    <rc><c>C </c><c>   2</c></rc>
    <rc><c>C </c><c>   2</c></rc>
    <rc><c>C </c><c>   2</c></rc>
    <rc><c>C </c><c>   2</c></rc>
    <rc><c>C </c><c>   2</c></rc>
    <rc><c>C </c><c>   2</c></rc>
    <rc><c>C </c><c>   2</c></rc>
    <rc><c>C </c><c>   2</c></rc>
    <rc><c>C </c><c>   2</c></rc>
    <rc><c>C </c><c>   2</c></rc>
    <rc><c>C </c><c>   2</c></rc>
    <rc><c>C </c><c>   2</c></rc>
    <rc><c>C </c><c>   2</c></rc>
    <rc><c>C </c><c>   2</c></rc>
    <rc><c>C </c><c>   2</c></rc>
    <rc><c>C </c><c>   2</c></rc>
    <rc><c>C </c><c>   2</c></rc>
    <rc><c>C </c><c>   2</c></rc>
    <rc><c>C </c><c>   2</c></rc>
    <rc><c>C </c><c>   2</c></rc>
    <rc><c>C </c><c>   2</c></rc>
    <rc><c>C </c><c>   2</c></rc>
    <rc><c>C </c><c>   2</c></rc>
    <rc><c>C </c><c>   2</c></rc>
    <rc><c>H </c><c>   3</c></rc>
    <rc><c>H </c><c>   3</c></rc>
    <rc><c>H </c><c>   3</c></rc>
    <rc><c>H </c><c>   3</c></rc>
    <rc><c>H </c><c>   3</c></rc>
    <rc><c>H </c><c>   3</c></rc>
    <rc><c>H </c><c>   3</c></rc>
    <rc><c>H </c><c>   3</c></rc>
    <rc><c>H </c><c>   3</c></rc>
    <rc><c>H </c><c>   3</c></rc>
    <rc><c>H </c><c>   3</c></rc>
    <rc><c>H </c><c>   3</c></rc>
    <rc><c>H </c><c>   3</c></rc>
    <rc><c>H </c><c>   3</c></rc>
    <rc><c>H </c><c>   3</c></rc>
    <rc><c>H </c><c>   3</c></rc>
    <rc><c>H </c><c>   3</c></rc>
    <rc><c>H </c><c>   3</c></rc>
    <rc><c>H </c><c>   3</c></rc>
    <rc><c>H </c><c>   3</c></rc>
    <rc><c>H </c><c>   3</c></rc>
    <rc><c>H </c><c>   3</c></rc>
    <rc><c>H </c><c>   3</c></rc>
    <rc><c>N </c><c>   4</c></rc>
    <rc><c>N </c><c>   4</c></rc>
    <rc><c>N </c><c>   4</c></rc>
    <rc><c>N </c><c>   4</c></rc>
    <rc><c>N </c><c>   4</c></rc>
    <rc><c>O </c><c>   5</c></rc>
    <rc><c>Ru</c><c>   6</c></rc>
   </set>
  </array>
  <array name="atomtypes" >
   <dimension dim="1">type</dimension>
   <field type="int">atomspertype</field>
   <field type="string">element</field>
   <field>mass</field>
   <field>valence</field>
   <field type="string">pseudopotential</field>
   <set>
    <rc><c>   1</c><c>C </c><c>     12.01100000</c><c>      4.50000000</c><c>  PAW_PBE C_h 06Feb2004                 </c></rc>
    <rc><c>  24</c><c>C </c><c>     12.01100000</c><c>      4.00000000</c><c>  PAW_PBE C_h 06Feb2004                 </c></rc>
    <rc><c>  23</c><c>H </c><c>      1.00000000</c><c>      1.00000000</c><c>  PAW_PBE H 15Jun2001                   </c></rc>
    <rc><c>   5</c><c>N </c><c>     14.00100000</c><c>      5.00000000</c><c>  PAW_PBE N_h 06Feb2004                 </c></rc>
    <rc><c>   1</c><c>O </c><c>     16.00000000</c><c>      6.00000000</c><c>  PAW_PBE O_h 06Feb2004                 </c></rc>
    <rc><c>   1</c><c>Ru</c><c>    101.07000000</c><c>     14.00000000</c><c>  PAW_PBE Ru_pv 28Jan2005               </c></rc>
   </set>
  </array>
 </atominfo>
 <structure name="initialpos" >
  <crystal>
   <varray name="basis" >
    <v>      20.00000000       0.00000000       0.00000000 </v>
    <v>       0.00000000      20.00000000       0.00000000 </v>
    <v>       0.00000000       0.00000000      20.00000000 </v>
   </varray>
   <i name="volume">   8000.00000000 </i>
   <varray name="rec_basis" >
    <v>       0.05000000       0.00000000       0.00000000 </v>
    <v>       0.00000000       0.05000000       0.00000000 </v>
    <v>       0.00000000       0.00000000       0.05000000 </v>
   </varray>
  </crystal>
  <varray name="positions" >
   <v>       0.29334713       0.47671938       0.56830116 </v>
   <v>       0.43793752       0.56561110       0.32757008 </v>
   <v>       0.45581208       0.52423376       0.38051465 </v>
   <v>       0.47372925       0.61530131       0.44986522 </v>
   <v>       0.45595175       0.65963312       0.39935201 </v>
   <v>       0.43785737       0.63472201       0.33675972 </v>
   <v>       0.52307882       0.32955005       0.67474498 </v>
   <v>       0.49710163       0.37190466       0.62618823 </v>
   <v>       0.60227374       0.41933300       0.60593616 </v>
   <v>       0.63096398       0.37761922       0.65422416 </v>
   <v>       0.73964927       0.52855915       0.53463181 </v>
   <v>       0.70082162       0.56612858       0.49044049 </v>
   <v>       0.63257913       0.55363620       0.48652424 </v>
   <v>       0.63952130       0.46927713       0.56732841 </v>
   <v>       0.70843899       0.47974495       0.57314689 </v>
   <v>       0.59134754       0.33224398       0.68903016 </v>
   <v>       0.36211554       0.48866484       0.56417415 </v>
   <v>       0.40790931       0.62211625       0.69058213 </v>
   <v>       0.47619960       0.62606623       0.67660612 </v>
   <v>       0.50295190       0.58590820       0.62668073 </v>
   <v>       0.39825425       0.53800137       0.60426081 </v>
   <v>       0.36904589       0.57756069       0.65398228 </v>
   <v>       0.37289802       0.40579857       0.48223443 </v>
   <v>       0.30486503       0.39173492       0.48443166 </v>
   <v>       0.26422003       0.42785518       0.52821594 </v>
   <v>       0.48989745       0.29510618       0.70074864 </v>
   <v>       0.61334240       0.29968355       0.72673159 </v>
   <v>       0.68424189       0.38076917       0.66478776 </v>
   <v>       0.54225374       0.36233861       0.46129841 </v>
   <v>       0.31579090       0.57306911       0.66420366 </v>
   <v>       0.44416348       0.37118871       0.61364770 </v>
   <v>       0.42392665       0.66833230       0.29622671 </v>
   <v>       0.45642762       0.71313270       0.40950260 </v>
   <v>       0.48809132       0.63358802       0.49907234 </v>
   <v>       0.56912778       0.41808713       0.41480476 </v>
   <v>       0.73767440       0.44963919       0.60776512 </v>
   <v>       0.72277620       0.60481012       0.45904817 </v>
   <v>       0.45570253       0.47012894       0.37468790 </v>
   <v>       0.40614333       0.37888556       0.44852541 </v>
   <v>       0.28443799       0.35306162       0.45202062 </v>
   <v>       0.79326502       0.53703787       0.53892527 </v>
   <v>       0.55589708       0.58769132       0.61440612 </v>
   <v>       0.42412006       0.54328620       0.27986105 </v>
   <v>       0.50894741       0.65984570       0.70400156 </v>
   <v>       0.26265982       0.50568523       0.60265428 </v>
   <v>       0.21072272       0.41813760       0.53105039 </v>
   <v>       0.60090654       0.58197914       0.45254259 </v>
   <v>       0.38544357       0.65296704       0.72941133 </v>
   <v>       0.47424490       0.54794204       0.44140236 </v>
   <v>       0.40180479       0.45306079       0.52108436 </v>
   <v>       0.53520702       0.41608490       0.59173240 </v>
   <v>       0.46544808       0.54254992       0.59041194 </v>
   <v>       0.60138410       0.50650621       0.52397638 </v>
   <v>       0.53073984       0.40562607       0.44215451 </v>
   <v>       0.50088568       0.48087016       0.51934246 </v>
  </varray>
  <varray name="selective"  type="logical" >
   <v type="logical" >  T  T  T </v>
   <v type="logical" >  T  T  T </v>
   <v type="logical" >  T  T  T </v>
   <v type="logical" >  T  T  T </v>
   <v type="logical" >  T  T  T </v>
   <v type="logical" >  T  T  T </v>
   <v type="logical" >  T  T  T </v>
   <v type="logical" >  T  T  T </v>
   <v type="logical" >  T  T  T </v>
   <v type="logical" >  T  T  T </v>
   <v type="logical" >  T  T  T </v>
   <v type="logical" >  T  T  T </v>
   <v type="logical" >  T  T  T </v>
   <v type="logical" >  T  T  T </v>
   <v type="logical" >  T  T  T </v>
   <v type="logical" >  T  T  T </v>
   <v type="logical" >  T  T  T </v>
   <v type="logical" >  T  T  T </v>
   <v type="logical" >  T  T  T </v>
   <v type="logical" >  T  T  T </v>
   <v type="logical" >  T  T  T </v>
   <v type="logical" >  T  T  T </v>
   <v type="logical" >  T  T  T </v>
   <v type="logical" >  T  T  T </v>
   <v type="logical" >  T  T  T </v>
   <v type="logical" >  T  T  T </v>
   <v type="logical" >  T  T  T </v>
   <v type="logical" >  T  T  T </v>
   <v type="logical" >  T  T  T </v>
   <v type="logical" >  T  T  T </v>
   <v type="logical" >  T  T  T </v>
   <v type="logical" >  T  T  T </v>
   <v type="logical" >  T  T  T </v>
   <v type="logical" >  T  T  T </v>
   <v type="logical" >  T  T  T </v>
   <v type="logical" >  T  T  T </v>
   <v type="logical" >  T  T  T </v>
   <v type="logical" >  T  T  T </v>
   <v type="logical" >  T  T  T </v>
   <v type="logical" >  T  T  T </v>
   <v type="logical" >  T  T  T </v>
   <v type="logical" >  T  T  T </v>
   <v type="logical" >  T  T  T </v>
   <v type="logical" >  T  T  T </v>
   <v type="logical" >  T  T  T </v>
   <v type="logical" >  T  T  T </v>
   <v type="logical" >  T  T  T </v>
   <v type="logical" >  T  T  T </v>
   <v type="logical" >  T  T  T </v>
   <v type="logical" >  T  T  T </v>
   <v type="logical" >  T  T  T </v>
   <v type="logical" >  T  T  T </v>
   <v type="logical" >  T  T  T </v>
   <v type="logical" >  T  T  T </v>
   <v type="logical" >  T  T  T </v>
  </varray>
  <nose>
   <v>      -3.00000000       0.00000000       0.00010000       0.00010000 </v>
  </nose>
 </structure>
 <calculation>
  <scstep>
   <time name="dav">   14.78   15.72</time>
   <time name="total">   22.35   23.35</time>
   <energy>
    <i name="alphaZ">     12.91687988 </i>
    <i name="ewald">  23288.11272644 </i>
    <i name="hartreedc"> -28890.39400458 </i>
    <i name="XCdc">    400.93941836 </i>
    <i name="pawpsdc">   5890.45591622 </i>
    <i name="pawaedc">  -5710.10246236 </i>
    <i name="eentropy">     -0.00000390 </i>
    <i name="bandstr">  -1675.91983712 </i>
    <i name="atom">   7593.39991119 </i>
    <i name="e_fr_energy">    909.40854413 </i>
    <i name="e_wo_entrp">    909.40854803 </i>
    <i name="e_0_energy">    909.40854608 </i>
   </energy>
  </scstep>
  <scstep>
   <time name="dav">   19.37   20.44</time>
   <time name="total">   19.38   20.46</time>
   <energy>
    <i name="e_fr_energy">    -68.21636741 </i>
    <i name="e_wo_entrp">    -68.21636741 </i>
    <i name="e_0_energy">    -68.21636741 </i>
   </energy>
  </scstep>
  <scstep>
   <time name="dav">   16.05   17.00</time>
   <time name="total">   16.06   17.01</time>
   <energy>
    <i name="e_fr_energy">   -393.17965625 </i>
    <i name="e_wo_entrp">   -393.17965625 </i>
    <i name="e_0_energy">   -393.17965625 </i>
   </energy>
  </scstep>
  <scstep>
   <time name="dav">   13.82   14.63</time>
   <time name="total">   13.84   14.65</time>
   <energy>
    <i name="e_fr_energy">   -412.35366946 </i>
    <i name="e_wo_entrp">   -412.35366946 </i>
    <i name="e_0_energy">   -412.35366946 </i>
   </energy>
  </scstep>
  <scstep>
   <time name="dav">   17.05   18.02</time>
   <time name="total">   22.42   23.42</time>
   <energy>
    <i name="e_fr_energy">   -412.58545414 </i>
    <i name="e_wo_entrp">   -412.58545414 </i>
    <i name="e_0_energy">   -412.58545414 </i>
   </energy>
  </scstep>
  <scstep>
   <time name="dav">   10.78   11.45</time>
   <time name="total">   23.51   24.21</time>
   <energy>
    <i name="e_fr_energy">   -394.06111998 </i>
    <i name="e_wo_entrp">   -394.06111998 </i>
    <i name="e_0_energy">   -394.06111998 </i>
   </energy>
  </scstep>
  <scstep>
   <time name="dav">   15.10   16.46</time>
   <time name="total">   28.04   29.44</time>
   <energy>
    <i name="e_fr_energy">   -383.20456828 </i>
    <i name="e_wo_entrp">   -383.20456828 </i>
    <i name="e_0_energy">   -383.20456828 </i>
   </energy>
  </scstep>
  <scstep>
   <time name="dav">   15.09   16.46</time>
   <time name="total">   27.86   29.27</time>
   <energy>
    <i name="e_fr_energy">   -378.86603914 </i>
    <i name="e_wo_entrp">   -378.86603914 </i>
    <i name="e_0_energy">   -378.86603914 </i>
   </energy>
  </scstep>
  <scstep>
   <time name="dav">   15.05   16.32</time>
   <time name="total">   27.66   28.98</time>
   <energy>
    <i name="e_fr_energy">   -377.64790680 </i>
    <i name="e_wo_entrp">   -377.64790680 </i>
    <i name="e_0_energy">   -377.64790680 </i>
   </energy>
  </scstep>
  <scstep>
   <time name="dav">   15.23   16.52</time>
   <time name="total">   27.98   29.32</time>
   <energy>
    <i name="e_fr_energy">   -377.60104098 </i>
    <i name="e_wo_entrp">   -377.60104098 </i>
    <i name="e_0_energy">   -377.60104098 </i>
   </energy>
  </scstep>
  <scstep>
   <time name="dav">   15.06   16.34</time>
   <time name="total">   27.64   29.09</time>
   <energy>
    <i name="e_fr_energy">   -377.46674675 </i>
    <i name="e_wo_entrp">   -377.46674675 </i>
    <i name="e_0_energy">   -377.46674675 </i>
   </energy>
  </scstep>
  <scstep>
   <time name="dav">   15.34   16.60</time>
   <time name="total">   28.11   29.40</time>
   <energy>
    <i name="e_fr_energy">   -377.39610149 </i>
    <i name="e_wo_entrp">   -377.39610149 </i>
    <i name="e_0_energy">   -377.39610149 </i>
   </energy>
  </scstep>
  <scstep>
   <time name="dav">   15.02   16.34</time>
   <time name="total">   27.86   29.20</time>
   <energy>
    <i name="e_fr_energy">   -377.37933465 </i>
    <i name="e_wo_entrp">   -377.37933465 </i>
    <i name="e_0_energy">   -377.37933465 </i>
   </energy>
  </scstep>
  <scstep>
   <time name="dav">   15.24   16.54</time>
   <time name="total">   27.95   29.42</time>
   <energy>
    <i name="e_fr_energy">   -377.36663305 </i>
    <i name="e_wo_entrp">   -377.36663305 </i>
    <i name="e_0_energy">   -377.36663305 </i>
   </energy>
  </scstep>
  <scstep>
   <time name="dav">   15.03   16.34</time>
   <time name="total">   27.83   29.19</time>
   <energy>
    <i name="e_fr_energy">   -377.36814285 </i>
    <i name="e_wo_entrp">   -377.36814285 </i>
    <i name="e_0_energy">   -377.36814285 </i>
   </energy>
  </scstep>
  <scstep>
   <time name="dav">   15.18   16.52</time>
   <time name="total">   27.97   29.52</time>
   <energy>
    <i name="e_fr_energy">   -377.37958275 </i>
    <i name="e_wo_entrp">   -377.37958275 </i>
    <i name="e_0_energy">   -377.37958275 </i>
   </energy>
  </scstep>
  <scstep>
   <time name="dav">   15.01   16.33</time>
   <time name="total">   27.81   29.17</time>
   <energy>
    <i name="e_fr_energy">   -377.38459763 </i>
    <i name="e_wo_entrp">   -377.38459763 </i>
    <i name="e_0_energy">   -377.38459763 </i>
   </energy>
  </scstep>
  <scstep>
   <time name="dav">   17.24   18.71</time>
   <time name="total">   29.97   31.65</time>
   <energy>
    <i name="e_fr_energy">   -377.38937299 </i>
    <i name="e_wo_entrp">   -377.38937299 </i>
    <i name="e_0_energy">   -377.38937299 </i>
   </energy>
  </scstep>
  <scstep>
   <time name="dav">   14.99   16.33</time>
   <time name="total">   27.86   29.26</time>
   <energy>
    <i name="e_fr_energy">   -377.39287835 </i>
    <i name="e_wo_entrp">   -377.39287835 </i>
    <i name="e_0_energy">   -377.39287835 </i>
   </energy>
  </scstep>
  <scstep>
   <time name="dav">   15.10   16.41</time>
   <time name="total">   27.58   29.29</time>
   <energy>
    <i name="e_fr_energy">   -377.39479768 </i>
    <i name="e_wo_entrp">   -377.39479768 </i>
    <i name="e_0_energy">   -377.39479768 </i>
   </energy>
  </scstep>
  <scstep>
   <time name="dav">   15.03   16.34</time>
   <time name="total">   27.86   29.20</time>
   <energy>
    <i name="e_fr_energy">   -377.39639658 </i>
    <i name="e_wo_entrp">   -377.39639658 </i>
    <i name="e_0_energy">   -377.39639658 </i>
   </energy>
  </scstep>
  <scstep>
   <time name="dav">   13.19   14.36</time>
   <time name="total">   26.28   27.51</time>
   <energy>
    <i name="e_fr_energy">   -377.39733309 </i>
    <i name="e_wo_entrp">   -377.39733309 </i>
    <i name="e_0_energy">   -377.39733309 </i>
   </energy>
  </scstep>
  <scstep>
   <time name="dav">   15.05   16.32</time>
   <time name="total">   28.01   29.32</time>
   <energy>
    <i name="e_fr_energy">   -377.39795429 </i>
    <i name="e_wo_entrp">   -377.39795429 </i>
    <i name="e_0_energy">   -377.39795429 </i>
   </energy>
  </scstep>
  <scstep>
   <time name="dav">   13.19   14.38</time>
   <time name="total">   25.99   27.40</time>
   <energy>
    <i name="e_fr_energy">   -377.39830873 </i>
    <i name="e_wo_entrp">   -377.39830873 </i>
    <i name="e_0_energy">   -377.39830873 </i>
   </energy>
  </scstep>
  <scstep>
   <time name="dav">   13.07   14.28</time>
   <time name="total">   25.99   27.26</time>
   <energy>
    <i name="e_fr_energy">   -377.39848562 </i>
    <i name="e_wo_entrp">   -377.39848562 </i>
    <i name="e_0_energy">   -377.39848562 </i>
   </energy>
  </scstep>
  <scstep>
   <time name="dav">   13.23   14.41</time>
   <time name="total">   26.08   27.34</time>
   <energy>
    <i name="e_fr_energy">   -377.39859055 </i>
    <i name="e_wo_entrp">   -377.39859055 </i>
    <i name="e_0_energy">   -377.39859055 </i>
   </energy>
  </scstep>
  <scstep>
   <time name="dav">   13.07   14.28</time>
   <time name="total">   26.15   27.45</time>
   <energy>
    <i name="e_fr_energy">   -377.39866011 </i>
    <i name="e_wo_entrp">   -377.39866011 </i>
    <i name="e_0_energy">   -377.39866011 </i>
   </energy>
  </scstep>
  <scstep>
   <time name="dav">   13.19   14.36</time>
   <time name="total">   26.00   27.41</time>
   <energy>
    <i name="e_fr_energy">   -377.39868343 </i>
    <i name="e_wo_entrp">   -377.39868343 </i>
    <i name="e_0_energy">   -377.39868343 </i>
   </energy>
  </scstep>
  <scstep>
   <time name="dav">   13.11   14.37</time>
   <time name="total">   26.11   27.43</time>
   <energy>
    <i name="e_fr_energy">   -377.39869850 </i>
    <i name="e_wo_entrp">   -377.39869850 </i>
    <i name="e_0_energy">   -377.39869850 </i>
   </energy>
  </scstep>
  <scstep>
   <time name="dav">   13.10   14.25</time>
   <time name="total">   26.23   27.45</time>
   <energy>
    <i name="e_fr_energy">   -377.39871043 </i>
    <i name="e_wo_entrp">   -377.39871043 </i>
    <i name="e_0_energy">   -377.39871043 </i>
   </energy>
  </scstep>
  <scstep>
   <time name="dav">   13.11   14.35</time>
   <time name="total">   20.67   21.96</time>
   <energy>
    <i name="alphaZ">     12.91687988 </i>
    <i name="ewald">  23288.11272644 </i>
    <i name="hartreedc"> -29128.16784452 </i>
    <i name="XCdc">    424.26682417 </i>
    <i name="pawpsdc">  81124.08955720 </i>
    <i name="pawaedc"> -80950.88218656 </i>
    <i name="eentropy">     -0.00000000 </i>
    <i name="bandstr">  -2741.13458312 </i>
    <i name="atom">   7593.39991119 </i>
    <i name="e_fr_energy">   -377.39871532 </i>
    <i name="e_wo_entrp">   -377.39871532 </i>
    <i name="e_0_energy">   -377.39871532 </i>
   </energy>
  </scstep>
  <structure>
   <crystal>
    <varray name="basis" >
     <v>      20.00000000       0.00000000       0.00000000 </v>
     <v>       0.00000000      20.00000000       0.00000000 </v>
     <v>       0.00000000       0.00000000      20.00000000 </v>
    </varray>
    <i name="volume">   8000.00000000 </i>
    <varray name="rec_basis" >
     <v>       0.05000000       0.00000000       0.00000000 </v>
     <v>       0.00000000       0.05000000       0.00000000 </v>
     <v>       0.00000000       0.00000000       0.05000000 </v>
    </varray>
   </crystal>
   <varray name="positions" >
    <v>       0.29334713       0.47671938       0.56830116 </v>
    <v>       0.43793752       0.56561110       0.32757008 </v>
    <v>       0.45581208       0.52423376       0.38051465 </v>
    <v>       0.47372925       0.61530131       0.44986522 </v>
    <v>       0.45595175       0.65963312       0.39935201 </v>
    <v>       0.43785737       0.63472201       0.33675972 </v>
    <v>       0.52307882       0.32955005       0.67474498 </v>
    <v>       0.49710163       0.37190466       0.62618823 </v>
    <v>       0.60227374       0.41933300       0.60593616 </v>
    <v>       0.63096398       0.37761922       0.65422416 </v>
    <v>       0.73964927       0.52855915       0.53463181 </v>
    <v>       0.70082162       0.56612858       0.49044049 </v>
    <v>       0.63257913       0.55363620       0.48652424 </v>
    <v>       0.63952130       0.46927713       0.56732841 </v>
    <v>       0.70843899       0.47974495       0.57314689 </v>
    <v>       0.59134754       0.33224398       0.68903016 </v>
    <v>       0.36211554       0.48866484       0.56417415 </v>
    <v>       0.40790931       0.62211625       0.69058213 </v>
    <v>       0.47619960       0.62606623       0.67660612 </v>
    <v>       0.50295190       0.58590820       0.62668073 </v>
    <v>       0.39825425       0.53800137       0.60426081 </v>
    <v>       0.36904589       0.57756069       0.65398228 </v>
    <v>       0.37289802       0.40579857       0.48223443 </v>
    <v>       0.30486503       0.39173492       0.48443166 </v>
    <v>       0.26422003       0.42785518       0.52821594 </v>
    <v>       0.48989745       0.29510618       0.70074864 </v>
    <v>       0.61334240       0.29968355       0.72673159 </v>
    <v>       0.68424189       0.38076917       0.66478776 </v>
    <v>       0.54225374       0.36233861       0.46129841 </v>
    <v>       0.31579090       0.57306911       0.66420366 </v>
    <v>       0.44416348       0.37118871       0.61364770 </v>
    <v>       0.42392665       0.66833230       0.29622671 </v>
    <v>       0.45642762       0.71313270       0.40950260 </v>
    <v>       0.48809132       0.63358802       0.49907234 </v>
    <v>       0.56912778       0.41808713       0.41480476 </v>
    <v>       0.73767440       0.44963919       0.60776512 </v>
    <v>       0.72277620       0.60481012       0.45904817 </v>
    <v>       0.45570253       0.47012894       0.37468790 </v>
    <v>       0.40614333       0.37888556       0.44852541 </v>
    <v>       0.28443799       0.35306162       0.45202062 </v>
    <v>       0.79326502       0.53703787       0.53892527 </v>
    <v>       0.55589708       0.58769132       0.61440612 </v>
    <v>       0.42412006       0.54328620       0.27986105 </v>
    <v>       0.50894741       0.65984570       0.70400156 </v>
    <v>       0.26265982       0.50568523       0.60265428 </v>
    <v>       0.21072272       0.41813760       0.53105039 </v>
    <v>       0.60090654       0.58197914       0.45254259 </v>
    <v>       0.38544357       0.65296704       0.72941133 </v>
    <v>       0.47424490       0.54794204       0.44140236 </v>
    <v>       0.40180479       0.45306079       0.52108436 </v>
    <v>       0.53520702       0.41608490       0.59173240 </v>
    <v>       0.46544808       0.54254992       0.59041194 </v>
    <v>       0.60138410       0.50650621       0.52397638 </v>
    <v>       0.53073984       0.40562607       0.44215451 </v>
    <v>       0.50088568       0.48087016       0.51934246 </v>
   </varray>
  </structure>
  <varray name="forces" >
   <v>       0.12826085      -0.11332853      -0.13778720 </v>
   <v>      -0.01399971      -0.02377222      -0.00731798 </v>
   <v>      -0.00399187      -0.00477208      -0.00073939 </v>
   <v>       0.00604659       0.00338641       0.01407233 </v>
   <v>      -0.00001952       0.01391019       0.01194625 </v>
   <v>       0.00567457       0.00209329       0.00664780 </v>
   <v>      -0.01650998      -0.00903598       0.00870065 </v>
   <v>       0.03480763       0.01916009      -0.02097891 </v>
   <v>      -0.01535504      -0.00196189       0.00112844 </v>
   <v>      -0.00075468       0.01221408      -0.00796122 </v>
   <v>      -0.02196973       0.01460321      -0.02085043 </v>
   <v>       0.02718176      -0.00697155       0.01548196 </v>
   <v>      -0.06869864       0.00029280      -0.01617000 </v>
   <v>      -0.02676855      -0.00049451      -0.00586459 </v>
   <v>      -0.01319748      -0.00437452       0.00443770 </v>
   <v>      -0.01741051       0.00106369      -0.00676804 </v>
   <v>      -0.67472132      -0.02068325       0.11890919 </v>
   <v>      -0.03729997       0.03531308       0.04720204 </v>
   <v>      -0.06093625      -0.00601193       0.01134621 </v>
   <v>      -0.01834458      -0.06539954      -0.05509397 </v>
   <v>      -0.17069981       0.07456516       0.10658237 </v>
   <v>      -0.04171406      -0.05155684      -0.04578243 </v>
   <v>      -0.24754136      -0.05776173      -0.01148638 </v>
   <v>       0.10234304       0.04083222       0.01731353 </v>
   <v>       0.39661859       0.59396421       0.47822126 </v>
   <v>       0.00139895      -0.00648473       0.00469552 </v>
   <v>      -0.00069764      -0.00500859       0.00420012 </v>
   <v>      -0.00256108      -0.00071846       0.00222708 </v>
   <v>       0.03682885      -0.02404189      -0.00633250 </v>
   <v>      -0.02792603       0.05027970       0.05681131 </v>
   <v>       0.00376621      -0.02769873       0.01842404 </v>
   <v>       0.00010391       0.00568472      -0.00297439 </v>
   <v>       0.00626079       0.00224718      -0.00120932 </v>
   <v>       0.01112197       0.01634526      -0.01067552 </v>
   <v>       0.01461297      -0.00504525      -0.03031125 </v>
   <v>       0.00186928       0.00060750       0.00076696 </v>
   <v>      -0.00116109       0.00204997      -0.00519143 </v>
   <v>       0.01385617      -0.00840900      -0.02271895 </v>
   <v>       0.00134180      -0.00383150      -0.00428876 </v>
   <v>      -0.06442008       0.02543915       0.04159495 </v>
   <v>       0.00048660       0.00276180       0.00079348 </v>
   <v>      -0.00303936      -0.00731323      -0.00619959 </v>
   <v>      -0.00213900       0.00077153      -0.00006983 </v>
   <v>      -0.00200373       0.00874459       0.00682074 </v>
   <v>       0.65547472      -0.64210293      -0.76248624 </v>
   <v>       0.00501560       0.12822785       0.12032718 </v>
   <v>       0.01130076       0.00186165      -0.00561059 </v>
   <v>      -0.00587367       0.00229398       0.00316584 </v>
   <v>       0.00586241       0.05694325      -0.07433864 </v>
   <v>       0.06538862       0.14758580       0.11325076 </v>
   <v>       0.08238392      -0.07578184       0.07276445 </v>
   <v>       0.08515836      -0.15247576      -0.15004043 </v>
   <v>       0.09325203       0.02048214       0.00078981 </v>
   <v>      -0.03892240       0.04658336       0.07282490 </v>
   <v>      -0.19773982      -0.00527140       0.05780113 </v>
  </varray>
  <varray name="stress" >
   <v>      -3.14642274      -0.09881529       0.00468757 </v>
   <v>      -0.09881528      -2.86569913      -0.29102049 </v>
   <v>       0.00468757      -0.29102048      -2.85307877 </v>
  </varray>
  <energy>
   <i name="e_fr_energy">   -377.39871532 </i>
   <i name="e_wo_entrp">   -377.39871532 </i>
   <i name="e_0_energy">     -0.00000000 </i>
  </energy>
  <time name="totalsc"> 1039.44 1082.09</time>
  <eigenvalues>
   <array>
    <dimension dim="1">band</dimension>
    <dimension dim="2">kpoint</dimension>
    <dimension dim="3">spin</dimension>
    <field>eigene</field>
    <field>occ</field>
    <set>
     <set comment="spin 1">
      <set comment="kpoint 1">
       <r>  -49.0848    1.0000 </r>
       <r>  -48.9390    1.0000 </r>
       <r>  -48.7260    1.0000 </r>
       <r>  -29.1406    1.0000 </r>
       <r>  -27.5574    1.0000 </r>
       <r>  -26.8127    1.0000 </r>
       <r>  -26.6450    1.0000 </r>
       <r>  -26.1803    1.0000 </r>
       <r>  -26.1154    1.0000 </r>
       <r>  -24.0647    1.0000 </r>
       <r>  -23.0247    1.0000 </r>
       <r>  -22.6215    1.0000 </r>
       <r>  -22.4139    1.0000 </r>
       <r>  -22.2890    1.0000 </r>
       <r>  -22.1886    1.0000 </r>
       <r>  -22.0530    1.0000 </r>
       <r>  -21.5213    1.0000 </r>
       <r>  -21.1279    1.0000 </r>
       <r>  -20.7754    1.0000 </r>
       <r>  -19.6035    1.0000 </r>
       <r>  -19.3282    1.0000 </r>
       <r>  -18.6967    1.0000 </r>
       <r>  -18.4335    1.0000 </r>
       <r>  -18.2457    1.0000 </r>
       <r>  -18.0177    1.0000 </r>
       <r>  -17.8462    1.0000 </r>
       <r>  -17.6457    1.0000 </r>
       <r>  -17.5831    1.0000 </r>
       <r>  -17.2833    1.0000 </r>
       <r>  -16.8172    1.0000 </r>
       <r>  -16.6549    1.0000 </r>
       <r>  -15.8380    1.0000 </r>
       <r>  -15.7158    1.0000 </r>
       <r>  -15.4721    1.0000 </r>
       <r>  -15.2721    1.0000 </r>
       <r>  -14.8634    1.0000 </r>
       <r>  -14.7428    1.0000 </r>
       <r>  -14.6748    1.0000 </r>
       <r>  -14.4825    1.0000 </r>
       <r>  -14.1202    1.0000 </r>
       <r>  -14.0665    1.0000 </r>
       <r>  -14.0549    1.0000 </r>
       <r>  -13.8876    1.0000 </r>
       <r>  -13.8229    1.0000 </r>
       <r>  -13.7712    1.0000 </r>
       <r>  -13.5934    1.0000 </r>
       <r>  -13.4521    1.0000 </r>
       <r>  -13.3694    1.0000 </r>
       <r>  -13.2273    1.0000 </r>
       <r>  -13.1538    1.0000 </r>
       <r>  -12.8996    1.0000 </r>
       <r>  -12.8343    1.0000 </r>
       <r>  -12.7899    1.0000 </r>
       <r>  -12.7082    1.0000 </r>
       <r>  -12.5310    1.0000 </r>
       <r>  -12.4372    1.0000 </r>
       <r>  -12.3172    1.0000 </r>
       <r>  -12.2508    1.0000 </r>
       <r>  -12.1974    1.0000 </r>
       <r>  -12.0491    1.0000 </r>
       <r>  -11.5290    1.0000 </r>
       <r>  -11.4190    1.0000 </r>
       <r>  -11.3490    1.0000 </r>
       <r>  -11.1477    1.0000 </r>
       <r>  -11.0847    1.0000 </r>
       <r>  -11.0457    1.0000 </r>
       <r>  -10.7676    1.0000 </r>
       <r>  -10.7183    1.0000 </r>
       <r>  -10.5667    1.0000 </r>
       <r>  -10.4032    1.0000 </r>
       <r>  -10.1417    1.0000 </r>
       <r>  -10.0750    1.0000 </r>
       <r>   -9.8037    1.0000 </r>
       <r>   -9.7382    1.0000 </r>
       <r>   -9.7008    1.0000 </r>
       <r>   -9.5780    1.0000 </r>
       <r>   -9.4809    1.0000 </r>
       <r>   -9.0481    1.0000 </r>
       <r>   -8.7546    1.0000 </r>
       <r>   -8.3708    1.0000 </r>
       <r>   -7.4068    1.0000 </r>
       <r>   -7.2749    1.0000 </r>
       <r>   -7.1303    1.0000 </r>
       <r>   -5.6278    0.0000 </r>
       <r>   -5.2225    0.0000 </r>
       <r>   -4.9938    0.0000 </r>
       <r>   -4.4112    0.0000 </r>
       <r>   -4.1360    0.0000 </r>
       <r>   -4.1116    0.0000 </r>
       <r>   -3.9622    0.0000 </r>
       <r>   -3.8408    0.0000 </r>
       <r>   -3.5024    0.0000 </r>
       <r>   -3.2720    0.0000 </r>
       <r>   -3.1480    0.0000 </r>
       <r>   -2.8259    0.0000 </r>
       <r>   -2.7195    0.0000 </r>
       <r>   -2.1077    0.0000 </r>
       <r>   -1.6447    0.0000 </r>
       <r>   -1.5620    0.0000 </r>
       <r>   -1.4824    0.0000 </r>
       <r>   -1.2773    0.0000 </r>
       <r>   -1.1912    0.0000 </r>
       <r>   -1.1604    0.0000 </r>
       <r>   -1.0065    0.0000 </r>
       <r>   -0.8435    0.0000 </r>
       <r>   -0.7917    0.0000 </r>
       <r>   -0.6875    0.0000 </r>
       <r>   -0.5820    0.0000 </r>
       <r>   -0.5363    0.0000 </r>
       <r>   -0.5161    0.0000 </r>
       <r>   -0.4204    0.0000 </r>
       <r>   -0.3808    0.0000 </r>
       <r>   -0.2166    0.0000 </r>
       <r>   -0.1701    0.0000 </r>
       <r>   -0.0698    0.0000 </r>
       <r>    0.0499    0.0000 </r>
       <r>    0.1142    0.0000 </r>
       <r>    0.1274    0.0000 </r>
       <r>    0.1820    0.0000 </r>
       <r>    0.2847    0.0000 </r>
       <r>    0.3210    0.0000 </r>
       <r>    0.3622    0.0000 </r>
       <r>    0.3686    0.0000 </r>
       <r>    0.4254    0.0000 </r>
       <r>    0.5300    0.0000 </r>
       <r>    0.6078    0.0000 </r>
       <r>    0.6573    0.0000 </r>
       <r>    0.6737    0.0000 </r>
      </set>
     </set>
     <set comment="spin 2">
      <set comment="kpoint 1">
       <r>  -49.0848    1.0000 </r>
       <r>  -48.9390    1.0000 </r>
       <r>  -48.7260    1.0000 </r>
       <r>  -29.1406    1.0000 </r>
       <r>  -27.5574    1.0000 </r>
       <r>  -26.8127    1.0000 </r>
       <r>  -26.6450    1.0000 </r>
       <r>  -26.1803    1.0000 </r>
       <r>  -26.1154    1.0000 </r>
       <r>  -24.0647    1.0000 </r>
       <r>  -23.0247    1.0000 </r>
       <r>  -22.6215    1.0000 </r>
       <r>  -22.4139    1.0000 </r>
       <r>  -22.2890    1.0000 </r>
       <r>  -22.1886    1.0000 </r>
       <r>  -22.0530    1.0000 </r>
       <r>  -21.5213    1.0000 </r>
       <r>  -21.1279    1.0000 </r>
       <r>  -20.7754    1.0000 </r>
       <r>  -19.6035    1.0000 </r>
       <r>  -19.3282    1.0000 </r>
       <r>  -18.6967    1.0000 </r>
       <r>  -18.4335    1.0000 </r>
       <r>  -18.2457    1.0000 </r>
       <r>  -18.0177    1.0000 </r>
       <r>  -17.8462    1.0000 </r>
       <r>  -17.6457    1.0000 </r>
       <r>  -17.5831    1.0000 </r>
       <r>  -17.2833    1.0000 </r>
       <r>  -16.8172    1.0000 </r>
       <r>  -16.6549    1.0000 </r>
       <r>  -15.8380    1.0000 </r>
       <r>  -15.7158    1.0000 </r>
       <r>  -15.4721    1.0000 </r>
       <r>  -15.2721    1.0000 </r>
       <r>  -14.8634    1.0000 </r>
       <r>  -14.7428    1.0000 </r>
       <r>  -14.6748    1.0000 </r>
       <r>  -14.4825    1.0000 </r>
       <r>  -14.1202    1.0000 </r>
       <r>  -14.0665    1.0000 </r>
       <r>  -14.0549    1.0000 </r>
       <r>  -13.8876    1.0000 </r>
       <r>  -13.8229    1.0000 </r>
       <r>  -13.7712    1.0000 </r>
       <r>  -13.5934    1.0000 </r>
       <r>  -13.4521    1.0000 </r>
       <r>  -13.3694    1.0000 </r>
       <r>  -13.2273    1.0000 </r>
       <r>  -13.1538    1.0000 </r>
       <r>  -12.8996    1.0000 </r>
       <r>  -12.8343    1.0000 </r>
       <r>  -12.7899    1.0000 </r>
       <r>  -12.7082    1.0000 </r>
       <r>  -12.5310    1.0000 </r>
       <r>  -12.4372    1.0000 </r>
       <r>  -12.3172    1.0000 </r>
       <r>  -12.2508    1.0000 </r>
       <r>  -12.1974    1.0000 </r>
       <r>  -12.0491    1.0000 </r>
       <r>  -11.5290    1.0000 </r>
       <r>  -11.4190    1.0000 </r>
       <r>  -11.3490    1.0000 </r>
       <r>  -11.1477    1.0000 </r>
       <r>  -11.0847    1.0000 </r>
       <r>  -11.0457    1.0000 </r>
       <r>  -10.7676    1.0000 </r>
       <r>  -10.7183    1.0000 </r>
       <r>  -10.5667    1.0000 </r>
       <r>  -10.4032    1.0000 </r>
       <r>  -10.1417    1.0000 </r>
       <r>  -10.0750    1.0000 </r>
       <r>   -9.8037    1.0000 </r>
       <r>   -9.7382    1.0000 </r>
       <r>   -9.7008    1.0000 </r>
       <r>   -9.5780    1.0000 </r>
       <r>   -9.4809    1.0000 </r>
       <r>   -9.0481    1.0000 </r>
       <r>   -8.7546    1.0000 </r>
       <r>   -8.3708    1.0000 </r>
       <r>   -7.4068    1.0000 </r>
       <r>   -7.2749    1.0000 </r>
       <r>   -7.1303    1.0000 </r>
       <r>   -5.6278    0.0000 </r>
       <r>   -5.2225    0.0000 </r>
       <r>   -4.9938    0.0000 </r>
       <r>   -4.4112    0.0000 </r>
       <r>   -4.1360    0.0000 </r>
       <r>   -4.1116    0.0000 </r>
       <r>   -3.9622    0.0000 </r>
       <r>   -3.8408    0.0000 </r>
       <r>   -3.5024    0.0000 </r>
       <r>   -3.2720    0.0000 </r>
       <r>   -3.1480    0.0000 </r>
       <r>   -2.8259    0.0000 </r>
       <r>   -2.7195    0.0000 </r>
       <r>   -2.1077    0.0000 </r>
       <r>   -1.6447    0.0000 </r>
       <r>   -1.5620    0.0000 </r>
       <r>   -1.4824    0.0000 </r>
       <r>   -1.2773    0.0000 </r>
       <r>   -1.1912    0.0000 </r>
       <r>   -1.1604    0.0000 </r>
       <r>   -1.0065    0.0000 </r>
       <r>   -0.8435    0.0000 </r>
       <r>   -0.7917    0.0000 </r>
       <r>   -0.6875    0.0000 </r>
       <r>   -0.5820    0.0000 </r>
       <r>   -0.5363    0.0000 </r>
       <r>   -0.5161    0.0000 </r>
       <r>   -0.4204    0.0000 </r>
       <r>   -0.3808    0.0000 </r>
       <r>   -0.2166    0.0000 </r>
       <r>   -0.1701    0.0000 </r>
       <r>   -0.0698    0.0000 </r>
       <r>    0.0499    0.0000 </r>
       <r>    0.1142    0.0000 </r>
       <r>    0.1274    0.0000 </r>
       <r>    0.1820    0.0000 </r>
       <r>    0.2847    0.0000 </r>
       <r>    0.3210    0.0000 </r>
       <r>    0.3622    0.0000 </r>
       <r>    0.3686    0.0000 </r>
       <r>    0.4254    0.0000 </r>
       <r>    0.5300    0.0000 </r>
       <r>    0.6078    0.0000 </r>
       <r>    0.6573    0.0000 </r>
       <r>    0.6737    0.0000 </r>
      </set>
     </set>
    </set>
   </array>
  </eigenvalues>
  <separator name="orbital magnetization" >
   <v name="MAGDIPOLOUT">      0.00000000      0.00000000      0.00000000</v>
  </separator>
  <dos>
   <i name="efermi">     -7.00980043 </i>
   <total>
    <array>
     <dimension dim="1">gridpoints</dimension>
     <dimension dim="2">spin</dimension>
     <field>energy</field>
     <field>total</field>
     <field>integrated</field>
     <set>
      <set comment="spin 1">
       <r>   -51.5727     0.0000     0.0000 </r>
       <r>   -51.3902     0.0000     0.0000 </r>
       <r>   -51.2078     0.0000     0.0000 </r>
       <r>   -51.0254     0.0000     0.0000 </r>
       <r>   -50.8429     0.0000     0.0000 </r>
       <r>   -50.6605     0.0000     0.0000 </r>
       <r>   -50.4780     0.0000     0.0000 </r>
       <r>   -50.2956     0.0000     0.0000 </r>
       <r>   -50.1131     0.0000     0.0000 </r>
       <r>   -49.9307     0.0000     0.0000 </r>
       <r>   -49.7482     0.0000     0.0000 </r>
       <r>   -49.5658     0.0000     0.0000 </r>
       <r>   -49.3833     0.0000     0.0000 </r>
       <r>   -49.2009     0.0000     0.0000 </r>
       <r>   -49.0184    10.9620     2.0000 </r>
       <r>   -48.8360     0.0000     4.0000 </r>
       <r>   -48.6535    10.9620     6.0000 </r>
       <r>   -48.4711     0.0000     6.0000 </r>
       <r>   -48.2886     0.0000     6.0000 </r>
       <r>   -48.1062     0.0000     6.0000 </r>
       <r>   -47.9237     0.0000     6.0000 </r>
       <r>   -47.7413     0.0000     6.0000 </r>
       <r>   -47.5588     0.0000     6.0000 </r>
       <r>   -47.3764     0.0000     6.0000 </r>
       <r>   -47.1939     0.0000     6.0000 </r>
       <r>   -47.0115     0.0000     6.0000 </r>
       <r>   -46.8291     0.0000     6.0000 </r>
       <r>   -46.6466     0.0000     6.0000 </r>
       <r>   -46.4642     0.0000     6.0000 </r>
       <r>   -46.2817     0.0000     6.0000 </r>
       <r>   -46.0993     0.0000     6.0000 </r>
       <r>   -45.9168     0.0000     6.0000 </r>
       <r>   -45.7344     0.0000     6.0000 </r>
       <r>   -45.5519     0.0000     6.0000 </r>
       <r>   -45.3695     0.0000     6.0000 </r>
       <r>   -45.1870     0.0000     6.0000 </r>
       <r>   -45.0046     0.0000     6.0000 </r>
       <r>   -44.8221     0.0000     6.0000 </r>
       <r>   -44.6397     0.0000     6.0000 </r>
       <r>   -44.4572     0.0000     6.0000 </r>
       <r>   -44.2748     0.0000     6.0000 </r>
       <r>   -44.0923     0.0000     6.0000 </r>
       <r>   -43.9099     0.0000     6.0000 </r>
       <r>   -43.7274     0.0000     6.0000 </r>
       <r>   -43.5450     0.0000     6.0000 </r>
       <r>   -43.3625     0.0000     6.0000 </r>
       <r>   -43.1801     0.0000     6.0000 </r>
       <r>   -42.9976     0.0000     6.0000 </r>
       <r>   -42.8152     0.0000     6.0000 </r>
       <r>   -42.6327     0.0000     6.0000 </r>
       <r>   -42.4503     0.0000     6.0000 </r>
       <r>   -42.2679     0.0000     6.0000 </r>
       <r>   -42.0854     0.0000     6.0000 </r>
       <r>   -41.9030     0.0000     6.0000 </r>
       <r>   -41.7205     0.0000     6.0000 </r>
       <r>   -41.5381     0.0000     6.0000 </r>
       <r>   -41.3556     0.0000     6.0000 </r>
       <r>   -41.1732     0.0000     6.0000 </r>
       <r>   -40.9907     0.0000     6.0000 </r>
       <r>   -40.8083     0.0000     6.0000 </r>
       <r>   -40.6258     0.0000     6.0000 </r>
       <r>   -40.4434     0.0000     6.0000 </r>
       <r>   -40.2609     0.0000     6.0000 </r>
       <r>   -40.0785     0.0000     6.0000 </r>
       <r>   -39.8960     0.0000     6.0000 </r>
       <r>   -39.7136     0.0000     6.0000 </r>
       <r>   -39.5311     0.0000     6.0000 </r>
       <r>   -39.3487     0.0000     6.0000 </r>
       <r>   -39.1662     0.0000     6.0000 </r>
       <r>   -38.9838     0.0000     6.0000 </r>
       <r>   -38.8013     0.0000     6.0000 </r>
       <r>   -38.6189     0.0000     6.0000 </r>
       <r>   -38.4364     0.0000     6.0000 </r>
       <r>   -38.2540     0.0000     6.0000 </r>
       <r>   -38.0716     0.0000     6.0000 </r>
       <r>   -37.8891     0.0000     6.0000 </r>
       <r>   -37.7067     0.0000     6.0000 </r>
       <r>   -37.5242     0.0000     6.0000 </r>
       <r>   -37.3418     0.0000     6.0000 </r>
       <r>   -37.1593     0.0000     6.0000 </r>
       <r>   -36.9769     0.0000     6.0000 </r>
       <r>   -36.7944     0.0000     6.0000 </r>
       <r>   -36.6120     0.0000     6.0000 </r>
       <r>   -36.4295     0.0000     6.0000 </r>
       <r>   -36.2471     0.0000     6.0000 </r>
       <r>   -36.0646     0.0000     6.0000 </r>
       <r>   -35.8822     0.0000     6.0000 </r>
       <r>   -35.6997     0.0000     6.0000 </r>
       <r>   -35.5173     0.0000     6.0000 </r>
       <r>   -35.3348     0.0000     6.0000 </r>
       <r>   -35.1524     0.0000     6.0000 </r>
       <r>   -34.9699     0.0000     6.0000 </r>
       <r>   -34.7875     0.0000     6.0000 </r>
       <r>   -34.6050     0.0000     6.0000 </r>
       <r>   -34.4226     0.0000     6.0000 </r>
       <r>   -34.2401     0.0000     6.0000 </r>
       <r>   -34.0577     0.0000     6.0000 </r>
       <r>   -33.8753     0.0000     6.0000 </r>
       <r>   -33.6928     0.0000     6.0000 </r>
       <r>   -33.5104     0.0000     6.0000 </r>
       <r>   -33.3279     0.0000     6.0000 </r>
       <r>   -33.1455     0.0000     6.0000 </r>
       <r>   -32.9630     0.0000     6.0000 </r>
       <r>   -32.7806     0.0000     6.0000 </r>
       <r>   -32.5981     0.0000     6.0000 </r>
       <r>   -32.4157     0.0000     6.0000 </r>
       <r>   -32.2332     0.0000     6.0000 </r>
       <r>   -32.0508     0.0000     6.0000 </r>
       <r>   -31.8683     0.0000     6.0000 </r>
       <r>   -31.6859     0.0000     6.0000 </r>
       <r>   -31.5034     0.0000     6.0000 </r>
       <r>   -31.3210     0.0000     6.0000 </r>
       <r>   -31.1385     0.0000     6.0000 </r>
       <r>   -30.9561     0.0000     6.0000 </r>
       <r>   -30.7736     0.0000     6.0000 </r>
       <r>   -30.5912     0.0000     6.0000 </r>
       <r>   -30.4087     0.0000     6.0000 </r>
       <r>   -30.2263     0.0000     6.0000 </r>
       <r>   -30.0438     0.0000     6.0000 </r>
       <r>   -29.8614     0.0000     6.0000 </r>
       <r>   -29.6790     0.0000     6.0000 </r>
       <r>   -29.4965     0.0000     6.0000 </r>
       <r>   -29.3141     0.0000     6.0000 </r>
       <r>   -29.1316     9.8505     7.7972 </r>
       <r>   -28.9492     0.0000     8.0000 </r>
       <r>   -28.7667     0.0000     8.0000 </r>
       <r>   -28.5843     0.0000     8.0000 </r>
       <r>   -28.4018     0.0000     8.0000 </r>
       <r>   -28.2194     0.0000     8.0000 </r>
       <r>   -28.0369     0.0000     8.0000 </r>
       <r>   -27.8545     0.0000     8.0000 </r>
       <r>   -27.6720     0.0000     8.0000 </r>
       <r>   -27.4896    10.9620    10.0000 </r>
       <r>   -27.3071     0.0000    10.0000 </r>
       <r>   -27.1247     0.0000    10.0000 </r>
       <r>   -26.9422     0.0000    10.0000 </r>
       <r>   -26.7598    10.9620    12.0000 </r>
       <r>   -26.5773    10.9620    14.0000 </r>
       <r>   -26.3949     0.0000    14.0000 </r>
       <r>   -26.2124     0.0000    14.0000 </r>
       <r>   -26.0300     0.0000    18.0000 </r>
       <r>   -25.8475     0.0000    18.0000 </r>
       <r>   -25.6651     0.0000    18.0000 </r>
       <r>   -25.4826     0.0000    18.0000 </r>
       <r>   -25.3002     0.0000    18.0000 </r>
       <r>   -25.1178     0.0000    18.0000 </r>
       <r>   -24.9353     0.0000    18.0000 </r>
       <r>   -24.7529     0.0000    18.0000 </r>
       <r>   -24.5704     0.0000    18.0000 </r>
       <r>   -24.3880     0.0000    18.0000 </r>
       <r>   -24.2055     0.0000    18.0000 </r>
       <r>   -24.0231    10.9620    20.0000 </r>
       <r>   -23.8406     0.0000    20.0000 </r>
       <r>   -23.6582     0.0000    20.0000 </r>
       <r>   -23.4757     0.0000    20.0000 </r>
       <r>   -23.2933     0.0000    20.0000 </r>
       <r>   -23.1108     0.0000    20.0000 </r>
       <r>   -22.9284     0.0000    22.0000 </r>
       <r>   -22.7459     0.0000    22.0000 </r>
       <r>   -22.5635    10.9620    24.0000 </r>
       <r>   -22.3810    10.9620    26.0000 </r>
       <r>   -22.1986     0.8602    28.1569 </r>
       <r>   -22.0161    10.9620    32.0000 </r>
       <r>   -21.8337     0.0000    32.0000 </r>
       <r>   -21.6512     0.0000    32.0000 </r>
       <r>   -21.4688    10.9620    34.0000 </r>
       <r>   -21.2863     0.0000    34.0000 </r>
       <r>   -21.1039    10.9583    35.9993 </r>
       <r>   -20.9215     0.0000    36.0000 </r>
       <r>   -20.7390    10.9620    38.0000 </r>
       <r>   -20.5566     0.0000    38.0000 </r>
       <r>   -20.3741     0.0000    38.0000 </r>
       <r>   -20.1917     0.0000    38.0000 </r>
       <r>   -20.0092     0.0000    38.0000 </r>
       <r>   -19.8268     0.0000    38.0000 </r>
       <r>   -19.6443     0.0000    38.0000 </r>
       <r>   -19.4619     0.0000    40.0000 </r>
       <r>   -19.2794    10.9620    42.0000 </r>
       <r>   -19.0970     0.0000    42.0000 </r>
       <r>   -18.9145     0.0000    42.0000 </r>
       <r>   -18.7321     0.0000    42.0000 </r>
       <r>   -18.5496     0.0000    44.0000 </r>
       <r>   -18.3672    10.9620    46.0000 </r>
       <r>   -18.1847    10.9620    48.0000 </r>
       <r>   -18.0023    10.8041    49.9712 </r>
       <r>   -17.8198    10.9610    51.9998 </r>
       <r>   -17.6374     9.6428    53.7593 </r>
       <r>   -17.4549     0.0000    56.0000 </r>
       <r>   -17.2725    10.2601    57.8719 </r>
       <r>   -17.0900     0.0000    58.0000 </r>
       <r>   -16.9076     0.0000    58.0000 </r>
       <r>   -16.7252     0.0000    60.0000 </r>
       <r>   -16.5427     0.0000    62.0000 </r>
       <r>   -16.3603     0.0000    62.0000 </r>
       <r>   -16.1778     0.0000    62.0000 </r>
       <r>   -15.9954     0.0000    62.0000 </r>
       <r>   -15.8129    10.9600    63.9996 </r>
       <r>   -15.6305     0.0000    66.0000 </r>
       <r>   -15.4480    10.9584    67.9993 </r>
       <r>   -15.2656     9.0224    69.6461 </r>
       <r>   -15.0831     0.0000    70.0000 </r>
       <r>   -14.9007     0.0000    70.0000 </r>
       <r>   -14.7182    10.9592    73.9995 </r>
       <r>   -14.5358     0.0000    76.0000 </r>
       <r>   -14.3533     0.0000    78.0000 </r>
       <r>   -14.1709     0.0000    78.0000 </r>
       <r>   -13.9884    21.9241    84.0000 </r>
       <r>   -13.8060    10.8697    87.9832 </r>
       <r>   -13.6235     0.0001    90.0000 </r>
       <r>   -13.4411    10.3135    93.8817 </r>
       <r>   -13.2586     0.0000    96.0000 </r>
       <r>   -13.0762    10.9620   100.0000 </r>
       <r>   -12.8937     8.7091   101.5890 </r>
       <r>   -12.7113    14.5680   106.6579 </r>
       <r>   -12.5288     6.8047   109.2415 </r>
       <r>   -12.3464     0.0002   112.0000 </r>
       <r>   -12.1640    10.9620   118.0000 </r>
       <r>   -11.9815    10.9620   120.0000 </r>
       <r>   -11.7991     0.0000   120.0000 </r>
       <r>   -11.6166     0.0000   120.0000 </r>
       <r>   -11.4342     0.1763   122.0322 </r>
       <r>   -11.2517     0.0000   126.0000 </r>
       <r>   -11.0693    21.7702   129.9719 </r>
       <r>   -10.8868     0.0000   132.0000 </r>
       <r>   -10.7044    21.6533   135.9506 </r>
       <r>   -10.5219    10.9620   138.0000 </r>
       <r>   -10.3395    10.9620   140.0000 </r>
       <r>   -10.1570     0.1651   140.0301 </r>
       <r>    -9.9746     0.0000   144.0000 </r>
       <r>    -9.7921    10.3966   145.8968 </r>
       <r>    -9.6097     0.0000   150.0000 </r>
       <r>    -9.4272    10.9620   154.0000 </r>
       <r>    -9.2448     0.0000   154.0000 </r>
       <r>    -9.0623     0.2452   154.0447 </r>
       <r>    -8.8799     0.0000   156.0000 </r>
       <r>    -8.6974    10.9620   158.0000 </r>
       <r>    -8.5150     0.0000   158.0000 </r>
       <r>    -8.3325    10.9620   160.0000 </r>
       <r>    -8.1501     0.0000   160.0000 </r>
       <r>    -7.9677     0.0000   160.0000 </r>
       <r>    -7.7852     0.0000   160.0000 </r>
       <r>    -7.6028     0.0000   160.0000 </r>
       <r>    -7.4203     0.3084   160.0563 </r>
       <r>    -7.2379    10.9620   164.0000 </r>
       <r>    -7.0554    10.9620   166.0000 </r>
       <r>    -6.8730     0.0000   166.0000 </r>
       <r>    -6.6905     0.0000   166.0000 </r>
       <r>    -6.5081     0.0000   166.0000 </r>
       <r>    -6.3256     0.0000   166.0000 </r>
       <r>    -6.1432     0.0000   166.0000 </r>
       <r>    -5.9607     0.0000   166.0000 </r>
       <r>    -5.7783     0.0000   166.0000 </r>
       <r>    -5.5958    10.9620   168.0000 </r>
       <r>    -5.4134     0.0000   168.0000 </r>
       <r>    -5.2309     1.2672   168.2312 </r>
       <r>    -5.0485     0.0000   170.0000 </r>
       <r>    -4.8660     0.0000   172.0000 </r>
       <r>    -4.6836     0.0000   172.0000 </r>
       <r>    -4.5011     0.0000   172.0000 </r>
       <r>    -4.3187     0.0000   174.0000 </r>
       <r>    -4.1362     5.3154   174.9698 </r>
       <r>    -3.9538     9.6801   179.7661 </r>
       <r>    -3.7714    10.9620   182.0000 </r>
       <r>    -3.5889     0.0000   182.0000 </r>
       <r>    -3.4065     0.0000   184.0000 </r>
       <r>    -3.2240    10.9620   186.0000 </r>
       <r>    -3.0416     0.0000   188.0000 </r>
       <r>    -2.8591     0.0000   188.0000 </r>
       <r>    -2.6767    10.9620   192.0000 </r>
       <r>    -2.4942     0.0000   192.0000 </r>
       <r>    -2.3118     0.0000   192.0000 </r>
       <r>    -2.1293     0.0123   192.0022 </r>
       <r>    -1.9469     0.0000   194.0000 </r>
       <r>    -1.7644     0.0000   194.0000 </r>
       <r>    -1.5820    10.9875   196.0046 </r>
       <r>    -1.3995     0.0000   200.0000 </r>
       <r>    -1.2171    10.9634   202.0003 </r>
       <r>    -1.0346     0.0004   206.0001 </r>
       <r>    -0.8522     1.2070   208.2202 </r>
       <r>    -0.6697    10.8975   213.9882 </r>
       <r>    -0.4873    21.9238   220.0000 </r>
       <r>    -0.3048    10.9620   224.0000 </r>
       <r>    -0.1224    10.9620   228.0000 </r>
       <r>     0.0601    10.1388   231.8498 </r>
       <r>     0.2425    10.9620   238.0000 </r>
       <r>     0.4250    27.1545   246.9543 </r>
       <r>     0.6074    16.1812   250.9522 </r>
       <r>     0.7898     0.0000   256.0000 </r>
       <r>     0.9723     0.0000   256.0000 </r>
       <r>     1.1547     0.0000   256.0000 </r>
       <r>     1.3372     0.0000   256.0000 </r>
       <r>     1.5196     0.0000   256.0000 </r>
       <r>     1.7021     0.0000   256.0000 </r>
       <r>     1.8845     0.0000   256.0000 </r>
       <r>     2.0670     0.0000   256.0000 </r>
       <r>     2.2494     0.0000   256.0000 </r>
       <r>     2.4319     0.0000   256.0000 </r>
       <r>     2.6143     0.0000   256.0000 </r>
       <r>     2.7968     0.0000   256.0000 </r>
       <r>     2.9792     0.0000   256.0000 </r>
       <r>     3.1617     0.0000   256.0000 </r>
      </set>
      <set comment="spin 2">
       <r>   -51.5727     0.0000     0.0000 </r>
       <r>   -51.3902     0.0000     0.0000 </r>
       <r>   -51.2078     0.0000     0.0000 </r>
       <r>   -51.0254     0.0000     0.0000 </r>
       <r>   -50.8429     0.0000     0.0000 </r>
       <r>   -50.6605     0.0000     0.0000 </r>
       <r>   -50.4780     0.0000     0.0000 </r>
       <r>   -50.2956     0.0000     0.0000 </r>
       <r>   -50.1131     0.0000     0.0000 </r>
       <r>   -49.9307     0.0000     0.0000 </r>
       <r>   -49.7482     0.0000     0.0000 </r>
       <r>   -49.5658     0.0000     0.0000 </r>
       <r>   -49.3833     0.0000     0.0000 </r>
       <r>   -49.2009     0.0000     0.0000 </r>
       <r>   -49.0184    10.9620     2.0000 </r>
       <r>   -48.8360     0.0000     4.0000 </r>
       <r>   -48.6535    10.9620     6.0000 </r>
       <r>   -48.4711     0.0000     6.0000 </r>
       <r>   -48.2886     0.0000     6.0000 </r>
       <r>   -48.1062     0.0000     6.0000 </r>
       <r>   -47.9237     0.0000     6.0000 </r>
       <r>   -47.7413     0.0000     6.0000 </r>
       <r>   -47.5588     0.0000     6.0000 </r>
       <r>   -47.3764     0.0000     6.0000 </r>
       <r>   -47.1939     0.0000     6.0000 </r>
       <r>   -47.0115     0.0000     6.0000 </r>
       <r>   -46.8291     0.0000     6.0000 </r>
       <r>   -46.6466     0.0000     6.0000 </r>
       <r>   -46.4642     0.0000     6.0000 </r>
       <r>   -46.2817     0.0000     6.0000 </r>
       <r>   -46.0993     0.0000     6.0000 </r>
       <r>   -45.9168     0.0000     6.0000 </r>
       <r>   -45.7344     0.0000     6.0000 </r>
       <r>   -45.5519     0.0000     6.0000 </r>
       <r>   -45.3695     0.0000     6.0000 </r>
       <r>   -45.1870     0.0000     6.0000 </r>
       <r>   -45.0046     0.0000     6.0000 </r>
       <r>   -44.8221     0.0000     6.0000 </r>
       <r>   -44.6397     0.0000     6.0000 </r>
       <r>   -44.4572     0.0000     6.0000 </r>
       <r>   -44.2748     0.0000     6.0000 </r>
       <r>   -44.0923     0.0000     6.0000 </r>
       <r>   -43.9099     0.0000     6.0000 </r>
       <r>   -43.7274     0.0000     6.0000 </r>
       <r>   -43.5450     0.0000     6.0000 </r>
       <r>   -43.3625     0.0000     6.0000 </r>
       <r>   -43.1801     0.0000     6.0000 </r>
       <r>   -42.9976     0.0000     6.0000 </r>
       <r>   -42.8152     0.0000     6.0000 </r>
       <r>   -42.6327     0.0000     6.0000 </r>
       <r>   -42.4503     0.0000     6.0000 </r>
       <r>   -42.2679     0.0000     6.0000 </r>
       <r>   -42.0854     0.0000     6.0000 </r>
       <r>   -41.9030     0.0000     6.0000 </r>
       <r>   -41.7205     0.0000     6.0000 </r>
       <r>   -41.5381     0.0000     6.0000 </r>
       <r>   -41.3556     0.0000     6.0000 </r>
       <r>   -41.1732     0.0000     6.0000 </r>
       <r>   -40.9907     0.0000     6.0000 </r>
       <r>   -40.8083     0.0000     6.0000 </r>
       <r>   -40.6258     0.0000     6.0000 </r>
       <r>   -40.4434     0.0000     6.0000 </r>
       <r>   -40.2609     0.0000     6.0000 </r>
       <r>   -40.0785     0.0000     6.0000 </r>
       <r>   -39.8960     0.0000     6.0000 </r>
       <r>   -39.7136     0.0000     6.0000 </r>
       <r>   -39.5311     0.0000     6.0000 </r>
       <r>   -39.3487     0.0000     6.0000 </r>
       <r>   -39.1662     0.0000     6.0000 </r>
       <r>   -38.9838     0.0000     6.0000 </r>
       <r>   -38.8013     0.0000     6.0000 </r>
       <r>   -38.6189     0.0000     6.0000 </r>
       <r>   -38.4364     0.0000     6.0000 </r>
       <r>   -38.2540     0.0000     6.0000 </r>
       <r>   -38.0716     0.0000     6.0000 </r>
       <r>   -37.8891     0.0000     6.0000 </r>
       <r>   -37.7067     0.0000     6.0000 </r>
       <r>   -37.5242     0.0000     6.0000 </r>
       <r>   -37.3418     0.0000     6.0000 </r>
       <r>   -37.1593     0.0000     6.0000 </r>
       <r>   -36.9769     0.0000     6.0000 </r>
       <r>   -36.7944     0.0000     6.0000 </r>
       <r>   -36.6120     0.0000     6.0000 </r>
       <r>   -36.4295     0.0000     6.0000 </r>
       <r>   -36.2471     0.0000     6.0000 </r>
       <r>   -36.0646     0.0000     6.0000 </r>
       <r>   -35.8822     0.0000     6.0000 </r>
       <r>   -35.6997     0.0000     6.0000 </r>
       <r>   -35.5173     0.0000     6.0000 </r>
       <r>   -35.3348     0.0000     6.0000 </r>
       <r>   -35.1524     0.0000     6.0000 </r>
       <r>   -34.9699     0.0000     6.0000 </r>
       <r>   -34.7875     0.0000     6.0000 </r>
       <r>   -34.6050     0.0000     6.0000 </r>
       <r>   -34.4226     0.0000     6.0000 </r>
       <r>   -34.2401     0.0000     6.0000 </r>
       <r>   -34.0577     0.0000     6.0000 </r>
       <r>   -33.8753     0.0000     6.0000 </r>
       <r>   -33.6928     0.0000     6.0000 </r>
       <r>   -33.5104     0.0000     6.0000 </r>
       <r>   -33.3279     0.0000     6.0000 </r>
       <r>   -33.1455     0.0000     6.0000 </r>
       <r>   -32.9630     0.0000     6.0000 </r>
       <r>   -32.7806     0.0000     6.0000 </r>
       <r>   -32.5981     0.0000     6.0000 </r>
       <r>   -32.4157     0.0000     6.0000 </r>
       <r>   -32.2332     0.0000     6.0000 </r>
       <r>   -32.0508     0.0000     6.0000 </r>
       <r>   -31.8683     0.0000     6.0000 </r>
       <r>   -31.6859     0.0000     6.0000 </r>
       <r>   -31.5034     0.0000     6.0000 </r>
       <r>   -31.3210     0.0000     6.0000 </r>
       <r>   -31.1385     0.0000     6.0000 </r>
       <r>   -30.9561     0.0000     6.0000 </r>
       <r>   -30.7736     0.0000     6.0000 </r>
       <r>   -30.5912     0.0000     6.0000 </r>
       <r>   -30.4087     0.0000     6.0000 </r>
       <r>   -30.2263     0.0000     6.0000 </r>
       <r>   -30.0438     0.0000     6.0000 </r>
       <r>   -29.8614     0.0000     6.0000 </r>
       <r>   -29.6790     0.0000     6.0000 </r>
       <r>   -29.4965     0.0000     6.0000 </r>
       <r>   -29.3141     0.0000     6.0000 </r>
       <r>   -29.1316     9.8506     7.7972 </r>
       <r>   -28.9492     0.0000     8.0000 </r>
       <r>   -28.7667     0.0000     8.0000 </r>
       <r>   -28.5843     0.0000     8.0000 </r>
       <r>   -28.4018     0.0000     8.0000 </r>
       <r>   -28.2194     0.0000     8.0000 </r>
       <r>   -28.0369     0.0000     8.0000 </r>
       <r>   -27.8545     0.0000     8.0000 </r>
       <r>   -27.6720     0.0000     8.0000 </r>
       <r>   -27.4896    10.9620    10.0000 </r>
       <r>   -27.3071     0.0000    10.0000 </r>
       <r>   -27.1247     0.0000    10.0000 </r>
       <r>   -26.9422     0.0000    10.0000 </r>
       <r>   -26.7598    10.9620    12.0000 </r>
       <r>   -26.5773    10.9620    14.0000 </r>
       <r>   -26.3949     0.0000    14.0000 </r>
       <r>   -26.2124     0.0000    14.0000 </r>
       <r>   -26.0300     0.0000    18.0000 </r>
       <r>   -25.8475     0.0000    18.0000 </r>
       <r>   -25.6651     0.0000    18.0000 </r>
       <r>   -25.4826     0.0000    18.0000 </r>
       <r>   -25.3002     0.0000    18.0000 </r>
       <r>   -25.1178     0.0000    18.0000 </r>
       <r>   -24.9353     0.0000    18.0000 </r>
       <r>   -24.7529     0.0000    18.0000 </r>
       <r>   -24.5704     0.0000    18.0000 </r>
       <r>   -24.3880     0.0000    18.0000 </r>
       <r>   -24.2055     0.0000    18.0000 </r>
       <r>   -24.0231    10.9620    20.0000 </r>
       <r>   -23.8406     0.0000    20.0000 </r>
       <r>   -23.6582     0.0000    20.0000 </r>
       <r>   -23.4757     0.0000    20.0000 </r>
       <r>   -23.2933     0.0000    20.0000 </r>
       <r>   -23.1108     0.0000    20.0000 </r>
       <r>   -22.9284     0.0000    22.0000 </r>
       <r>   -22.7459     0.0000    22.0000 </r>
       <r>   -22.5635    10.9620    24.0000 </r>
       <r>   -22.3810    10.9620    26.0000 </r>
       <r>   -22.1986     0.8602    28.1569 </r>
       <r>   -22.0161    10.9620    32.0000 </r>
       <r>   -21.8337     0.0000    32.0000 </r>
       <r>   -21.6512     0.0000    32.0000 </r>
       <r>   -21.4688    10.9620    34.0000 </r>
       <r>   -21.2863     0.0000    34.0000 </r>
       <r>   -21.1039    10.9583    35.9993 </r>
       <r>   -20.9215     0.0000    36.0000 </r>
       <r>   -20.7390    10.9620    38.0000 </r>
       <r>   -20.5566     0.0000    38.0000 </r>
       <r>   -20.3741     0.0000    38.0000 </r>
       <r>   -20.1917     0.0000    38.0000 </r>
       <r>   -20.0092     0.0000    38.0000 </r>
       <r>   -19.8268     0.0000    38.0000 </r>
       <r>   -19.6443     0.0000    38.0000 </r>
       <r>   -19.4619     0.0000    40.0000 </r>
       <r>   -19.2794    10.9620    42.0000 </r>
       <r>   -19.0970     0.0000    42.0000 </r>
       <r>   -18.9145     0.0000    42.0000 </r>
       <r>   -18.7321     0.0000    42.0000 </r>
       <r>   -18.5496     0.0000    44.0000 </r>
       <r>   -18.3672    10.9620    46.0000 </r>
       <r>   -18.1847    10.9620    48.0000 </r>
       <r>   -18.0023    10.8041    49.9712 </r>
       <r>   -17.8198    10.9610    51.9998 </r>
       <r>   -17.6374     9.6428    53.7593 </r>
       <r>   -17.4549     0.0000    56.0000 </r>
       <r>   -17.2725    10.2601    57.8719 </r>
       <r>   -17.0900     0.0000    58.0000 </r>
       <r>   -16.9076     0.0000    58.0000 </r>
       <r>   -16.7252     0.0000    60.0000 </r>
       <r>   -16.5427     0.0000    62.0000 </r>
       <r>   -16.3603     0.0000    62.0000 </r>
       <r>   -16.1778     0.0000    62.0000 </r>
       <r>   -15.9954     0.0000    62.0000 </r>
       <r>   -15.8129    10.9600    63.9996 </r>
       <r>   -15.6305     0.0000    66.0000 </r>
       <r>   -15.4480    10.9584    67.9993 </r>
       <r>   -15.2656     9.0224    69.6461 </r>
       <r>   -15.0831     0.0000    70.0000 </r>
       <r>   -14.9007     0.0000    70.0000 </r>
       <r>   -14.7182    10.9592    73.9995 </r>
       <r>   -14.5358     0.0000    76.0000 </r>
       <r>   -14.3533     0.0000    78.0000 </r>
       <r>   -14.1709     0.0000    78.0000 </r>
       <r>   -13.9884    21.9241    84.0000 </r>
       <r>   -13.8060    10.8697    87.9832 </r>
       <r>   -13.6235     0.0001    90.0000 </r>
       <r>   -13.4411    10.3135    93.8817 </r>
       <r>   -13.2586     0.0000    96.0000 </r>
       <r>   -13.0762    10.9620   100.0000 </r>
       <r>   -12.8937     8.7091   101.5890 </r>
       <r>   -12.7113    14.5680   106.6579 </r>
       <r>   -12.5288     6.8047   109.2415 </r>
       <r>   -12.3464     0.0002   112.0000 </r>
       <r>   -12.1640    10.9620   118.0000 </r>
       <r>   -11.9815    10.9620   120.0000 </r>
       <r>   -11.7991     0.0000   120.0000 </r>
       <r>   -11.6166     0.0000   120.0000 </r>
       <r>   -11.4342     0.1763   122.0322 </r>
       <r>   -11.2517     0.0000   126.0000 </r>
       <r>   -11.0693    21.7702   129.9719 </r>
       <r>   -10.8868     0.0000   132.0000 </r>
       <r>   -10.7044    21.6533   135.9506 </r>
       <r>   -10.5219    10.9620   138.0000 </r>
       <r>   -10.3395    10.9620   140.0000 </r>
       <r>   -10.1570     0.1651   140.0301 </r>
       <r>    -9.9746     0.0000   144.0000 </r>
       <r>    -9.7921    10.3966   145.8968 </r>
       <r>    -9.6097     0.0000   150.0000 </r>
       <r>    -9.4272    10.9620   154.0000 </r>
       <r>    -9.2448     0.0000   154.0000 </r>
       <r>    -9.0623     0.2452   154.0447 </r>
       <r>    -8.8799     0.0000   156.0000 </r>
       <r>    -8.6974    10.9620   158.0000 </r>
       <r>    -8.5150     0.0000   158.0000 </r>
       <r>    -8.3325    10.9620   160.0000 </r>
       <r>    -8.1501     0.0000   160.0000 </r>
       <r>    -7.9677     0.0000   160.0000 </r>
       <r>    -7.7852     0.0000   160.0000 </r>
       <r>    -7.6028     0.0000   160.0000 </r>
       <r>    -7.4203     0.3084   160.0563 </r>
       <r>    -7.2379    10.9620   164.0000 </r>
       <r>    -7.0554    10.9620   166.0000 </r>
       <r>    -6.8730     0.0000   166.0000 </r>
       <r>    -6.6905     0.0000   166.0000 </r>
       <r>    -6.5081     0.0000   166.0000 </r>
       <r>    -6.3256     0.0000   166.0000 </r>
       <r>    -6.1432     0.0000   166.0000 </r>
       <r>    -5.9607     0.0000   166.0000 </r>
       <r>    -5.7783     0.0000   166.0000 </r>
       <r>    -5.5958    10.9620   168.0000 </r>
       <r>    -5.4134     0.0000   168.0000 </r>
       <r>    -5.2309     1.2672   168.2312 </r>
       <r>    -5.0485     0.0000   170.0000 </r>
       <r>    -4.8660     0.0000   172.0000 </r>
       <r>    -4.6836     0.0000   172.0000 </r>
       <r>    -4.5011     0.0000   172.0000 </r>
       <r>    -4.3187     0.0000   174.0000 </r>
       <r>    -4.1362     5.3154   174.9698 </r>
       <r>    -3.9538     9.6801   179.7661 </r>
       <r>    -3.7714    10.9620   182.0000 </r>
       <r>    -3.5889     0.0000   182.0000 </r>
       <r>    -3.4065     0.0000   184.0000 </r>
       <r>    -3.2240    10.9620   186.0000 </r>
       <r>    -3.0416     0.0000   188.0000 </r>
       <r>    -2.8591     0.0000   188.0000 </r>
       <r>    -2.6767    10.9620   192.0000 </r>
       <r>    -2.4942     0.0000   192.0000 </r>
       <r>    -2.3118     0.0000   192.0000 </r>
       <r>    -2.1293     0.0123   192.0022 </r>
       <r>    -1.9469     0.0000   194.0000 </r>
       <r>    -1.7644     0.0000   194.0000 </r>
       <r>    -1.5820    10.9875   196.0046 </r>
       <r>    -1.3995     0.0000   200.0000 </r>
       <r>    -1.2171    10.9634   202.0003 </r>
       <r>    -1.0346     0.0004   206.0001 </r>
       <r>    -0.8522     1.2070   208.2202 </r>
       <r>    -0.6697    10.8975   213.9882 </r>
       <r>    -0.4873    21.9238   220.0000 </r>
       <r>    -0.3048    10.9620   224.0000 </r>
       <r>    -0.1224    10.9620   228.0000 </r>
       <r>     0.0601    10.1386   231.8498 </r>
       <r>     0.2425    10.9620   238.0000 </r>
       <r>     0.4250    27.1545   246.9543 </r>
       <r>     0.6074    16.1789   250.9518 </r>
       <r>     0.7898     0.0000   256.0000 </r>
       <r>     0.9723     0.0000   256.0000 </r>
       <r>     1.1547     0.0000   256.0000 </r>
       <r>     1.3372     0.0000   256.0000 </r>
       <r>     1.5196     0.0000   256.0000 </r>
       <r>     1.7021     0.0000   256.0000 </r>
       <r>     1.8845     0.0000   256.0000 </r>
       <r>     2.0670     0.0000   256.0000 </r>
       <r>     2.2494     0.0000   256.0000 </r>
       <r>     2.4319     0.0000   256.0000 </r>
       <r>     2.6143     0.0000   256.0000 </r>
       <r>     2.7968     0.0000   256.0000 </r>
       <r>     2.9792     0.0000   256.0000 </r>
       <r>     3.1617     0.0000   256.0000 </r>
      </set>
     </set>
    </array>
   </total>
  </dos>
 </calculation>
 <structure name="finalpos" >
  <crystal>
   <varray name="basis" >
    <v>      20.00000000       0.00000000       0.00000000 </v>
    <v>       0.00000000      20.00000000       0.00000000 </v>
    <v>       0.00000000       0.00000000      20.00000000 </v>
   </varray>
   <i name="volume">   8000.00000000 </i>
   <varray name="rec_basis" >
    <v>       0.05000000       0.00000000       0.00000000 </v>
    <v>       0.00000000       0.05000000       0.00000000 </v>
    <v>       0.00000000       0.00000000       0.05000000 </v>
   </varray>
  </crystal>
  <varray name="positions" >
   <v>       0.29334713       0.47671938       0.56830116 </v>
   <v>       0.43793752       0.56561110       0.32757008 </v>
   <v>       0.45581208       0.52423376       0.38051465 </v>
   <v>       0.47372925       0.61530131       0.44986522 </v>
   <v>       0.45595175       0.65963312       0.39935201 </v>
   <v>       0.43785737       0.63472201       0.33675972 </v>
   <v>       0.52307882       0.32955005       0.67474498 </v>
   <v>       0.49710163       0.37190466       0.62618823 </v>
   <v>       0.60227374       0.41933300       0.60593616 </v>
   <v>       0.63096398       0.37761922       0.65422416 </v>
   <v>       0.73964927       0.52855915       0.53463181 </v>
   <v>       0.70082162       0.56612858       0.49044049 </v>
   <v>       0.63257913       0.55363620       0.48652424 </v>
   <v>       0.63952130       0.46927713       0.56732841 </v>
   <v>       0.70843899       0.47974495       0.57314689 </v>
   <v>       0.59134754       0.33224398       0.68903016 </v>
   <v>       0.36211554       0.48866484       0.56417415 </v>
   <v>       0.40790931       0.62211625       0.69058213 </v>
   <v>       0.47619960       0.62606623       0.67660612 </v>
   <v>       0.50295190       0.58590820       0.62668073 </v>
   <v>       0.39825425       0.53800137       0.60426081 </v>
   <v>       0.36904589       0.57756069       0.65398228 </v>
   <v>       0.37289802       0.40579857       0.48223443 </v>
   <v>       0.30486503       0.39173492       0.48443166 </v>
   <v>       0.26422003       0.42785518       0.52821594 </v>
   <v>       0.48989745       0.29510618       0.70074864 </v>
   <v>       0.61334240       0.29968355       0.72673159 </v>
   <v>       0.68424189       0.38076917       0.66478776 </v>
   <v>       0.54225374       0.36233861       0.46129841 </v>
   <v>       0.31579090       0.57306911       0.66420366 </v>
   <v>       0.44416348       0.37118871       0.61364770 </v>
   <v>       0.42392665       0.66833230       0.29622671 </v>
   <v>       0.45642762       0.71313270       0.40950260 </v>
   <v>       0.48809132       0.63358802       0.49907234 </v>
   <v>       0.56912778       0.41808713       0.41480476 </v>
   <v>       0.73767440       0.44963919       0.60776512 </v>
   <v>       0.72277620       0.60481012       0.45904817 </v>
   <v>       0.45570253       0.47012894       0.37468790 </v>
   <v>       0.40614333       0.37888556       0.44852541 </v>
   <v>       0.28443799       0.35306162       0.45202062 </v>
   <v>       0.79326502       0.53703787       0.53892527 </v>
   <v>       0.55589708       0.58769132       0.61440612 </v>
   <v>       0.42412006       0.54328620       0.27986105 </v>
   <v>       0.50894741       0.65984570       0.70400156 </v>
   <v>       0.26265982       0.50568523       0.60265428 </v>
   <v>       0.21072272       0.41813760       0.53105039 </v>
   <v>       0.60090654       0.58197914       0.45254259 </v>
   <v>       0.38544357       0.65296704       0.72941133 </v>
   <v>       0.47424490       0.54794204       0.44140236 </v>
   <v>       0.40180479       0.45306079       0.52108436 </v>
   <v>       0.53520702       0.41608490       0.59173240 </v>
   <v>       0.46544808       0.54254992       0.59041194 </v>
   <v>       0.60138410       0.50650621       0.52397638 </v>
   <v>       0.53073984       0.40562607       0.44215451 </v>
   <v>       0.50088568       0.48087016       0.51934246 </v>
  </varray>
  <varray name="selective"  type="logical" >
   <v type="logical" >  T  T  T </v>
   <v type="logical" >  T  T  T </v>
   <v type="logical" >  T  T  T </v>
   <v type="logical" >  T  T  T </v>
   <v type="logical" >  T  T  T </v>
   <v type="logical" >  T  T  T </v>
   <v type="logical" >  T  T  T </v>
   <v type="logical" >  T  T  T </v>
   <v type="logical" >  T  T  T </v>
   <v type="logical" >  T  T  T </v>
   <v type="logical" >  T  T  T </v>
   <v type="logical" >  T  T  T </v>
   <v type="logical" >  T  T  T </v>
   <v type="logical" >  T  T  T </v>
   <v type="logical" >  T  T  T </v>
   <v type="logical" >  T  T  T </v>
   <v type="logical" >  T  T  T </v>
   <v type="logical" >  T  T  T </v>
   <v type="logical" >  T  T  T </v>
   <v type="logical" >  T  T  T </v>
   <v type="logical" >  T  T  T </v>
   <v type="logical" >  T  T  T </v>
   <v type="logical" >  T  T  T </v>
   <v type="logical" >  T  T  T </v>
   <v type="logical" >  T  T  T </v>
   <v type="logical" >  T  T  T </v>
   <v type="logical" >  T  T  T </v>
   <v type="logical" >  T  T  T </v>
   <v type="logical" >  T  T  T </v>
   <v type="logical" >  T  T  T </v>
   <v type="logical" >  T  T  T </v>
   <v type="logical" >  T  T  T </v>
   <v type="logical" >  T  T  T </v>
   <v type="logical" >  T  T  T </v>
   <v type="logical" >  T  T  T </v>
   <v type="logical" >  T  T  T </v>
   <v type="logical" >  T  T  T </v>
   <v type="logical" >  T  T  T </v>
   <v type="logical" >  T  T  T </v>
   <v type="logical" >  T  T  T </v>
   <v type="logical" >  T  T  T </v>
   <v type="logical" >  T  T  T </v>
   <v type="logical" >  T  T  T </v>
   <v type="logical" >  T  T  T </v>
   <v type="logical" >  T  T  T </v>
   <v type="logical" >  T  T  T </v>
   <v type="logical" >  T  T  T </v>
   <v type="logical" >  T  T  T </v>
   <v type="logical" >  T  T  T </v>
   <v type="logical" >  T  T  T </v>
   <v type="logical" >  T  T  T </v>
   <v type="logical" >  T  T  T </v>
   <v type="logical" >  T  T  T </v>
   <v type="logical" >  T  T  T </v>
   <v type="logical" >  T  T  T </v>
  </varray>
  <nose>
   <v>      -3.00000000       0.00000000       0.00010000       0.00010000 </v>
  </nose>
 </structure>
</modeling>
