  55  55   0   0
  0.1454545E+03  0.2000000E-08  0.2000000E-08  0.2000000E-08  0.5000000E-15
  1.000000000000000E-004
  CAR 
 c2_oh2_ruthenium_mol                    
      3.16958468    -51.58778241  301     -7.00615937      1.00000000
    -51.588  0.0000E+00  0.0000E+00  0.0000E+00  0.0000E+00
    -51.405  0.0000E+00  0.0000E+00  0.0000E+00  0.0000E+00
    -51.223  0.0000E+00  0.0000E+00  0.0000E+00  0.0000E+00
    -51.040  0.0000E+00  0.0000E+00  0.0000E+00  0.0000E+00
    -50.858  0.0000E+00  0.0000E+00  0.0000E+00  0.0000E+00
    -50.675  0.0000E+00  0.0000E+00  0.0000E+00  0.0000E+00
    -50.493  0.0000E+00  0.0000E+00  0.0000E+00  0.0000E+00
    -50.310  0.0000E+00  0.0000E+00  0.0000E+00  0.0000E+00
    -50.128  0.0000E+00  0.0000E+00  0.0000E+00  0.0000E+00
    -49.945  0.0000E+00  0.0000E+00  0.0000E+00  0.0000E+00
    -49.763  0.0000E+00  0.0000E+00  0.0000E+00  0.0000E+00
    -49.580  0.0000E+00  0.0000E+00  0.0000E+00  0.0000E+00
    -49.397  0.0000E+00  0.0000E+00  0.0000E+00  0.0000E+00
    -49.215  0.0000E+00  0.0000E+00  0.0000E+00  0.0000E+00
    -49.032  0.1096E+02  0.1096E+02  0.2000E+01  0.2000E+01
    -48.850  0.0000E+00  0.0000E+00  0.4000E+01  0.4000E+01
    -48.667  0.1096E+02  0.1096E+02  0.6000E+01  0.6000E+01
    -48.485  0.0000E+00  0.0000E+00  0.6000E+01  0.6000E+01
    -48.302  0.0000E+00  0.0000E+00  0.6000E+01  0.6000E+01
    -48.120  0.0000E+00  0.0000E+00  0.6000E+01  0.6000E+01
    -47.937  0.0000E+00  0.0000E+00  0.6000E+01  0.6000E+01
    -47.755  0.0000E+00  0.0000E+00  0.6000E+01  0.6000E+01
    -47.572  0.0000E+00  0.0000E+00  0.6000E+01  0.6000E+01
    -47.390  0.0000E+00  0.0000E+00  0.6000E+01  0.6000E+01
    -47.207  0.0000E+00  0.0000E+00  0.6000E+01  0.6000E+01
    -47.025  0.0000E+00  0.0000E+00  0.6000E+01  0.6000E+01
    -46.842  0.0000E+00  0.0000E+00  0.6000E+01  0.6000E+01
    -46.660  0.0000E+00  0.0000E+00  0.6000E+01  0.6000E+01
    -46.477  0.0000E+00  0.0000E+00  0.6000E+01  0.6000E+01
    -46.295  0.0000E+00  0.0000E+00  0.6000E+01  0.6000E+01
    -46.112  0.0000E+00  0.0000E+00  0.6000E+01  0.6000E+01
    -45.930  0.0000E+00  0.0000E+00  0.6000E+01  0.6000E+01
    -45.747  0.0000E+00  0.0000E+00  0.6000E+01  0.6000E+01
    -45.564  0.0000E+00  0.0000E+00  0.6000E+01  0.6000E+01
    -45.382  0.0000E+00  0.0000E+00  0.6000E+01  0.6000E+01
    -45.199  0.0000E+00  0.0000E+00  0.6000E+01  0.6000E+01
    -45.017  0.0000E+00  0.0000E+00  0.6000E+01  0.6000E+01
    -44.834  0.0000E+00  0.0000E+00  0.6000E+01  0.6000E+01
    -44.652  0.0000E+00  0.0000E+00  0.6000E+01  0.6000E+01
    -44.469  0.0000E+00  0.0000E+00  0.6000E+01  0.6000E+01
    -44.287  0.0000E+00  0.0000E+00  0.6000E+01  0.6000E+01
    -44.104  0.0000E+00  0.0000E+00  0.6000E+01  0.6000E+01
    -43.922  0.0000E+00  0.0000E+00  0.6000E+01  0.6000E+01
    -43.739  0.0000E+00  0.0000E+00  0.6000E+01  0.6000E+01
    -43.557  0.0000E+00  0.0000E+00  0.6000E+01  0.6000E+01
    -43.374  0.0000E+00  0.0000E+00  0.6000E+01  0.6000E+01
    -43.192  0.0000E+00  0.0000E+00  0.6000E+01  0.6000E+01
    -43.009  0.0000E+00  0.0000E+00  0.6000E+01  0.6000E+01
    -42.827  0.0000E+00  0.0000E+00  0.6000E+01  0.6000E+01
    -42.644  0.0000E+00  0.0000E+00  0.6000E+01  0.6000E+01
    -42.462  0.0000E+00  0.0000E+00  0.6000E+01  0.6000E+01
    -42.279  0.0000E+00  0.0000E+00  0.6000E+01  0.6000E+01
    -42.097  0.0000E+00  0.0000E+00  0.6000E+01  0.6000E+01
    -41.914  0.0000E+00  0.0000E+00  0.6000E+01  0.6000E+01
    -41.731  0.0000E+00  0.0000E+00  0.6000E+01  0.6000E+01
    -41.549  0.0000E+00  0.0000E+00  0.6000E+01  0.6000E+01
    -41.366  0.0000E+00  0.0000E+00  0.6000E+01  0.6000E+01
    -41.184  0.0000E+00  0.0000E+00  0.6000E+01  0.6000E+01
    -41.001  0.0000E+00  0.0000E+00  0.6000E+01  0.6000E+01
    -40.819  0.0000E+00  0.0000E+00  0.6000E+01  0.6000E+01
    -40.636  0.0000E+00  0.0000E+00  0.6000E+01  0.6000E+01
    -40.454  0.0000E+00  0.0000E+00  0.6000E+01  0.6000E+01
    -40.271  0.0000E+00  0.0000E+00  0.6000E+01  0.6000E+01
    -40.089  0.0000E+00  0.0000E+00  0.6000E+01  0.6000E+01
    -39.906  0.0000E+00  0.0000E+00  0.6000E+01  0.6000E+01
    -39.724  0.0000E+00  0.0000E+00  0.6000E+01  0.6000E+01
    -39.541  0.0000E+00  0.0000E+00  0.6000E+01  0.6000E+01
    -39.359  0.0000E+00  0.0000E+00  0.6000E+01  0.6000E+01
    -39.176  0.0000E+00  0.0000E+00  0.6000E+01  0.6000E+01
    -38.994  0.0000E+00  0.0000E+00  0.6000E+01  0.6000E+01
    -38.811  0.0000E+00  0.0000E+00  0.6000E+01  0.6000E+01
    -38.629  0.0000E+00  0.0000E+00  0.6000E+01  0.6000E+01
    -38.446  0.0000E+00  0.0000E+00  0.6000E+01  0.6000E+01
    -38.263  0.0000E+00  0.0000E+00  0.6000E+01  0.6000E+01
    -38.081  0.0000E+00  0.0000E+00  0.6000E+01  0.6000E+01
    -37.898  0.0000E+00  0.0000E+00  0.6000E+01  0.6000E+01
    -37.716  0.0000E+00  0.0000E+00  0.6000E+01  0.6000E+01
    -37.533  0.0000E+00  0.0000E+00  0.6000E+01  0.6000E+01
    -37.351  0.0000E+00  0.0000E+00  0.6000E+01  0.6000E+01
    -37.168  0.0000E+00  0.0000E+00  0.6000E+01  0.6000E+01
    -36.986  0.0000E+00  0.0000E+00  0.6000E+01  0.6000E+01
    -36.803  0.0000E+00  0.0000E+00  0.6000E+01  0.6000E+01
    -36.621  0.0000E+00  0.0000E+00  0.6000E+01  0.6000E+01
    -36.438  0.0000E+00  0.0000E+00  0.6000E+01  0.6000E+01
    -36.256  0.0000E+00  0.0000E+00  0.6000E+01  0.6000E+01
    -36.073  0.0000E+00  0.0000E+00  0.6000E+01  0.6000E+01
    -35.891  0.0000E+00  0.0000E+00  0.6000E+01  0.6000E+01
    -35.708  0.0000E+00  0.0000E+00  0.6000E+01  0.6000E+01
    -35.526  0.0000E+00  0.0000E+00  0.6000E+01  0.6000E+01
    -35.343  0.0000E+00  0.0000E+00  0.6000E+01  0.6000E+01
    -35.161  0.0000E+00  0.0000E+00  0.6000E+01  0.6000E+01
    -34.978  0.0000E+00  0.0000E+00  0.6000E+01  0.6000E+01
    -34.796  0.0000E+00  0.0000E+00  0.6000E+01  0.6000E+01
    -34.613  0.0000E+00  0.0000E+00  0.6000E+01  0.6000E+01
    -34.430  0.0000E+00  0.0000E+00  0.6000E+01  0.6000E+01
    -34.248  0.0000E+00  0.0000E+00  0.6000E+01  0.6000E+01
    -34.065  0.0000E+00  0.0000E+00  0.6000E+01  0.6000E+01
    -33.883  0.0000E+00  0.0000E+00  0.6000E+01  0.6000E+01
    -33.700  0.0000E+00  0.0000E+00  0.6000E+01  0.6000E+01
    -33.518  0.0000E+00  0.0000E+00  0.6000E+01  0.6000E+01
    -33.335  0.0000E+00  0.0000E+00  0.6000E+01  0.6000E+01
    -33.153  0.0000E+00  0.0000E+00  0.6000E+01  0.6000E+01
    -32.970  0.0000E+00  0.0000E+00  0.6000E+01  0.6000E+01
    -32.788  0.0000E+00  0.0000E+00  0.6000E+01  0.6000E+01
    -32.605  0.0000E+00  0.0000E+00  0.6000E+01  0.6000E+01
    -32.423  0.0000E+00  0.0000E+00  0.6000E+01  0.6000E+01
    -32.240  0.0000E+00  0.0000E+00  0.6000E+01  0.6000E+01
    -32.058  0.0000E+00  0.0000E+00  0.6000E+01  0.6000E+01
    -31.875  0.0000E+00  0.0000E+00  0.6000E+01  0.6000E+01
    -31.693  0.0000E+00  0.0000E+00  0.6000E+01  0.6000E+01
    -31.510  0.0000E+00  0.0000E+00  0.6000E+01  0.6000E+01
    -31.328  0.0000E+00  0.0000E+00  0.6000E+01  0.6000E+01
    -31.145  0.0000E+00  0.0000E+00  0.6000E+01  0.6000E+01
    -30.963  0.0000E+00  0.0000E+00  0.6000E+01  0.6000E+01
    -30.780  0.0000E+00  0.0000E+00  0.6000E+01  0.6000E+01
    -30.597  0.0000E+00  0.0000E+00  0.6000E+01  0.6000E+01
    -30.415  0.0000E+00  0.0000E+00  0.6000E+01  0.6000E+01
    -30.232  0.0000E+00  0.0000E+00  0.6000E+01  0.6000E+01
    -30.050  0.0000E+00  0.0000E+00  0.6000E+01  0.6000E+01
    -29.867  0.0000E+00  0.0000E+00  0.6000E+01  0.6000E+01
    -29.685  0.0000E+00  0.0000E+00  0.6000E+01  0.6000E+01
    -29.502  0.0000E+00  0.0000E+00  0.6000E+01  0.6000E+01
    -29.320  0.0000E+00  0.0000E+00  0.6000E+01  0.6000E+01
    -29.137  0.2780E-01  0.2780E-01  0.6005E+01  0.6005E+01
    -28.955  0.0000E+00  0.0000E+00  0.8000E+01  0.8000E+01
    -28.772  0.0000E+00  0.0000E+00  0.8000E+01  0.8000E+01
    -28.590  0.0000E+00  0.0000E+00  0.8000E+01  0.8000E+01
    -28.407  0.0000E+00  0.0000E+00  0.8000E+01  0.8000E+01
    -28.225  0.0000E+00  0.0000E+00  0.8000E+01  0.8000E+01
    -28.042  0.0000E+00  0.0000E+00  0.8000E+01  0.8000E+01
    -27.860  0.0000E+00  0.0000E+00  0.8000E+01  0.8000E+01
    -27.677  0.0000E+00  0.0000E+00  0.8000E+01  0.8000E+01
    -27.495  0.1096E+02  0.1096E+02  0.1000E+02  0.1000E+02
    -27.312  0.0000E+00  0.0000E+00  0.1000E+02  0.1000E+02
    -27.129  0.0000E+00  0.0000E+00  0.1000E+02  0.1000E+02
    -26.947  0.0000E+00  0.0000E+00  0.1000E+02  0.1000E+02
    -26.764  0.1096E+02  0.1096E+02  0.1200E+02  0.1200E+02
    -26.582  0.1055E-04  0.1056E-04  0.1200E+02  0.1200E+02
    -26.399  0.0000E+00  0.0000E+00  0.1400E+02  0.1400E+02
    -26.217  0.4252E-12  0.4252E-12  0.1400E+02  0.1400E+02
    -26.034  0.0000E+00  0.0000E+00  0.1800E+02  0.1800E+02
    -25.852  0.0000E+00  0.0000E+00  0.1800E+02  0.1800E+02
    -25.669  0.0000E+00  0.0000E+00  0.1800E+02  0.1800E+02
    -25.487  0.0000E+00  0.0000E+00  0.1800E+02  0.1800E+02
    -25.304  0.0000E+00  0.0000E+00  0.1800E+02  0.1800E+02
    -25.122  0.0000E+00  0.0000E+00  0.1800E+02  0.1800E+02
    -24.939  0.0000E+00  0.0000E+00  0.1800E+02  0.1800E+02
    -24.757  0.0000E+00  0.0000E+00  0.1800E+02  0.1800E+02
    -24.574  0.0000E+00  0.0000E+00  0.1800E+02  0.1800E+02
    -24.392  0.0000E+00  0.0000E+00  0.1800E+02  0.1800E+02
    -24.209  0.0000E+00  0.0000E+00  0.1800E+02  0.1800E+02
    -24.027  0.1025E+02  0.1025E+02  0.1987E+02  0.1987E+02
    -23.844  0.0000E+00  0.0000E+00  0.2000E+02  0.2000E+02
    -23.662  0.0000E+00  0.0000E+00  0.2000E+02  0.2000E+02
    -23.479  0.0000E+00  0.0000E+00  0.2000E+02  0.2000E+02
    -23.296  0.0000E+00  0.0000E+00  0.2000E+02  0.2000E+02
    -23.114  0.0000E+00  0.0000E+00  0.2000E+02  0.2000E+02
    -22.931  0.1096E+02  0.1096E+02  0.2200E+02  0.2200E+02
    -22.749  0.0000E+00  0.0000E+00  0.2200E+02  0.2200E+02
    -22.566  0.0000E+00  0.0000E+00  0.2200E+02  0.2200E+02
    -22.384  0.1096E+02  0.1096E+02  0.2600E+02  0.2600E+02
    -22.201  0.1081E+02  0.1081E+02  0.2997E+02  0.2997E+02
    -22.019  0.1093E+02  0.1093E+02  0.3200E+02  0.3200E+02
    -21.836  0.0000E+00  0.0000E+00  0.3200E+02  0.3200E+02
    -21.654  0.0000E+00  0.0000E+00  0.3200E+02  0.3200E+02
    -21.471  0.1096E+02  0.1096E+02  0.3400E+02  0.3400E+02
    -21.289  0.0000E+00  0.0000E+00  0.3400E+02  0.3400E+02
    -21.106  0.1051E+02  0.1051E+02  0.3592E+02  0.3592E+02
    -20.924  0.0000E+00  0.0000E+00  0.3600E+02  0.3600E+02
    -20.741  0.1096E+02  0.1096E+02  0.3800E+02  0.3800E+02
    -20.559  0.0000E+00  0.0000E+00  0.3800E+02  0.3800E+02
    -20.376  0.0000E+00  0.0000E+00  0.3800E+02  0.3800E+02
    -20.194  0.0000E+00  0.0000E+00  0.3800E+02  0.3800E+02
    -20.011  0.0000E+00  0.0000E+00  0.3800E+02  0.3800E+02
    -19.829  0.0000E+00  0.0000E+00  0.3800E+02  0.3800E+02
    -19.646  0.5366E-10  0.5366E-10  0.3800E+02  0.3800E+02
    -19.463  0.0000E+00  0.0000E+00  0.4000E+02  0.4000E+02
    -19.281  0.1096E+02  0.1096E+02  0.4200E+02  0.4200E+02
    -19.098  0.0000E+00  0.0000E+00  0.4200E+02  0.4200E+02
    -18.916  0.0000E+00  0.0000E+00  0.4200E+02  0.4200E+02
    -18.733  0.6345E+00  0.6345E+00  0.4212E+02  0.4212E+02
    -18.551  0.0000E+00  0.0000E+00  0.4400E+02  0.4400E+02
    -18.368  0.0000E+00  0.0000E+00  0.4600E+02  0.4600E+02
    -18.186  0.0000E+00  0.0000E+00  0.4600E+02  0.4600E+02
    -18.003  0.0000E+00  0.0000E+00  0.4800E+02  0.4800E+02
    -17.821  0.4427E+01  0.4427E+01  0.5081E+02  0.5081E+02
    -17.638  0.5242E+01  0.5242E+01  0.5296E+02  0.5296E+02
    -17.456  0.0000E+00  0.0000E+00  0.5600E+02  0.5600E+02
    -17.273  0.1096E+02  0.1096E+02  0.5800E+02  0.5800E+02
    -17.091  0.0000E+00  0.0000E+00  0.5800E+02  0.5800E+02
    -16.908  0.0000E+00  0.0000E+00  0.5800E+02  0.5800E+02
    -16.726  0.1096E+02  0.1096E+02  0.6000E+02  0.6000E+02
    -16.543  0.1096E+02  0.1096E+02  0.6200E+02  0.6200E+02
    -16.361  0.0000E+00  0.0000E+00  0.6200E+02  0.6200E+02
    -16.178  0.0000E+00  0.0000E+00  0.6200E+02  0.6200E+02
    -15.995  0.0000E+00  0.0000E+00  0.6200E+02  0.6200E+02
    -15.813  0.1096E+02  0.1096E+02  0.6400E+02  0.6400E+02
    -15.630  0.1600E-09  0.1600E-09  0.6600E+02  0.6600E+02
    -15.448  0.0000E+00  0.0000E+00  0.6800E+02  0.6800E+02
    -15.265  0.1082E+02  0.1082E+02  0.6998E+02  0.6998E+02
    -15.083  0.0000E+00  0.0000E+00  0.7000E+02  0.7000E+02
    -14.900  0.0000E+00  0.0000E+00  0.7000E+02  0.7000E+02
    -14.718  0.1097E+02  0.1097E+02  0.7200E+02  0.7200E+02
    -14.535  0.0000E+00  0.0000E+00  0.7600E+02  0.7600E+02
    -14.353  0.5879E-02  0.5879E-02  0.7600E+02  0.7600E+02
    -14.170  0.2774E-11  0.2774E-11  0.7800E+02  0.7800E+02
    -13.988  0.2190E+02  0.2190E+02  0.8400E+02  0.8400E+02
    -13.805  0.1787E+01  0.1787E+01  0.8633E+02  0.8633E+02
    -13.623  0.0000E+00  0.0000E+00  0.9000E+02  0.9000E+02
    -13.440  0.1096E+02  0.1096E+02  0.9200E+02  0.9200E+02
    -13.258  0.1143E+02  0.1143E+02  0.9609E+02  0.9609E+02
    -13.075  0.0000E+00  0.0000E+00  0.1000E+03  0.1000E+03
    -12.893  0.1096E+02  0.1096E+02  0.1040E+03  0.1040E+03
    -12.710  0.1156E+02  0.1156E+02  0.1061E+03  0.1061E+03
    -12.528  0.7015E-10  0.7015E-10  0.1080E+03  0.1080E+03
    -12.345  0.1096E+02  0.1096E+02  0.1120E+03  0.1120E+03
    -12.162  0.3415E-03  0.3415E-03  0.1160E+03  0.1160E+03
    -11.980  0.1096E+02  0.1096E+02  0.1200E+03  0.1200E+03
    -11.797  0.0000E+00  0.0000E+00  0.1200E+03  0.1200E+03
    -11.615  0.0000E+00  0.0000E+00  0.1220E+03  0.1220E+03
    -11.432  0.0000E+00  0.0000E+00  0.1220E+03  0.1220E+03
    -11.250  0.1929E+02  0.1929E+02  0.1255E+03  0.1255E+03
    -11.067  0.2182E+02  0.2182E+02  0.1320E+03  0.1320E+03
    -10.885  0.0000E+00  0.0000E+00  0.1320E+03  0.1320E+03
    -10.702  0.2191E+02  0.2191E+02  0.1360E+03  0.1360E+03
    -10.520  0.1096E+02  0.1096E+02  0.1380E+03  0.1380E+03
    -10.337  0.1096E+02  0.1096E+02  0.1400E+03  0.1400E+03
    -10.155  0.0000E+00  0.0000E+00  0.1400E+03  0.1400E+03
     -9.972  0.1687E+01  0.1687E+01  0.1403E+03  0.1403E+03
     -9.790  0.1101E+02  0.1101E+02  0.1460E+03  0.1460E+03
     -9.607  0.1095E+02  0.1095E+02  0.1520E+03  0.1520E+03
     -9.425  0.9950E-01  0.9950E-01  0.1520E+03  0.1520E+03
     -9.242  0.0000E+00  0.0000E+00  0.1540E+03  0.1540E+03
     -9.060  0.0000E+00  0.0000E+00  0.1540E+03  0.1540E+03
     -8.877  0.0000E+00  0.0000E+00  0.1560E+03  0.1560E+03
     -8.695  0.1096E+02  0.1096E+02  0.1580E+03  0.1580E+03
     -8.512  0.0000E+00  0.0000E+00  0.1580E+03  0.1580E+03
     -8.329  0.1096E+02  0.1096E+02  0.1600E+03  0.1600E+03
     -8.147  0.0000E+00  0.0000E+00  0.1600E+03  0.1600E+03
     -7.964  0.0000E+00  0.0000E+00  0.1600E+03  0.1600E+03
     -7.782  0.0000E+00  0.0000E+00  0.1600E+03  0.1600E+03
     -7.599  0.0000E+00  0.0000E+00  0.1600E+03  0.1600E+03
     -7.417  0.6240E+01  0.6240E+01  0.1611E+03  0.1611E+03
     -7.234  0.1096E+02  0.1096E+02  0.1640E+03  0.1640E+03
     -7.052  0.1096E+02  0.1096E+02  0.1660E+03  0.1660E+03
     -6.869  0.0000E+00  0.0000E+00  0.1660E+03  0.1660E+03
     -6.687  0.0000E+00  0.0000E+00  0.1660E+03  0.1660E+03
     -6.504  0.0000E+00  0.0000E+00  0.1660E+03  0.1660E+03
     -6.322  0.0000E+00  0.0000E+00  0.1660E+03  0.1660E+03
     -6.139  0.0000E+00  0.0000E+00  0.1660E+03  0.1660E+03
     -5.957  0.0000E+00  0.0000E+00  0.1660E+03  0.1660E+03
     -5.774  0.0000E+00  0.0000E+00  0.1660E+03  0.1660E+03
     -5.592  0.0000E+00  0.0000E+00  0.1680E+03  0.1680E+03
     -5.409  0.0000E+00  0.0000E+00  0.1680E+03  0.1680E+03
     -5.227  0.0000E+00  0.0000E+00  0.1680E+03  0.1680E+03
     -5.044  0.4863E+00  0.4863E+00  0.1681E+03  0.1681E+03
     -4.861  0.0000E+00  0.0000E+00  0.1720E+03  0.1720E+03
     -4.679  0.0000E+00  0.0000E+00  0.1720E+03  0.1720E+03
     -4.496  0.0000E+00  0.0000E+00  0.1720E+03  0.1720E+03
     -4.314  0.0000E+00  0.0000E+00  0.1720E+03  0.1720E+03
     -4.131  0.1189E+02  0.1189E+02  0.1762E+03  0.1762E+03
     -3.949  0.1096E+02  0.1096E+02  0.1800E+03  0.1800E+03
     -3.766  0.0000E+00  0.0000E+00  0.1820E+03  0.1820E+03
     -3.584  0.2119E-11  0.2119E-11  0.1820E+03  0.1820E+03
     -3.401  0.1095E+02  0.1095E+02  0.1860E+03  0.1860E+03
     -3.219  0.0000E+00  0.0000E+00  0.1860E+03  0.1860E+03
     -3.036  0.1096E+02  0.1096E+02  0.1880E+03  0.1880E+03
     -2.854  0.0000E+00  0.0000E+00  0.1880E+03  0.1880E+03
     -2.671  0.1096E+02  0.1096E+02  0.1920E+03  0.1920E+03
     -2.489  0.0000E+00  0.0000E+00  0.1920E+03  0.1920E+03
     -2.306  0.0000E+00  0.0000E+00  0.1920E+03  0.1920E+03
     -2.124  0.4684E-13  0.4684E-13  0.1920E+03  0.1920E+03
     -1.941  0.0000E+00  0.0000E+00  0.1940E+03  0.1940E+03
     -1.759  0.2027E-08  0.2023E-08  0.1940E+03  0.1940E+03
     -1.576  0.3204E-05  0.3201E-05  0.1960E+03  0.1960E+03
     -1.394  0.0000E+00  0.0000E+00  0.1980E+03  0.1980E+03
     -1.211  0.2000E+02  0.2000E+02  0.2037E+03  0.2037E+03
     -1.028  0.1168E+01  0.1167E+01  0.2062E+03  0.2062E+03
     -0.846  0.1337E+02  0.1337E+02  0.2104E+03  0.2104E+03
     -0.663  0.9169E+01  0.9168E+01  0.2137E+03  0.2137E+03
     -0.481  0.2191E+02  0.2191E+02  0.2200E+03  0.2200E+03
     -0.298  0.1096E+02  0.1096E+02  0.2240E+03  0.2240E+03
     -0.116  0.1095E+02  0.1095E+02  0.2280E+03  0.2280E+03
      0.067  0.1096E+02  0.1096E+02  0.2320E+03  0.2320E+03
      0.249  0.1412E+02  0.1412E+02  0.2366E+03  0.2366E+03
      0.432  0.1107E+02  0.1107E+02  0.2440E+03  0.2440E+03
      0.614  0.1143E+02  0.1144E+02  0.2501E+03  0.2501E+03
      0.797  0.0000E+00  0.0000E+00  0.2560E+03  0.2560E+03
      0.979  0.0000E+00  0.0000E+00  0.2560E+03  0.2560E+03
      1.162  0.0000E+00  0.0000E+00  0.2560E+03  0.2560E+03
      1.344  0.0000E+00  0.0000E+00  0.2560E+03  0.2560E+03
      1.527  0.0000E+00  0.0000E+00  0.2560E+03  0.2560E+03
      1.709  0.0000E+00  0.0000E+00  0.2560E+03  0.2560E+03
      1.892  0.0000E+00  0.0000E+00  0.2560E+03  0.2560E+03
      2.074  0.0000E+00  0.0000E+00  0.2560E+03  0.2560E+03
      2.257  0.0000E+00  0.0000E+00  0.2560E+03  0.2560E+03
      2.439  0.0000E+00  0.0000E+00  0.2560E+03  0.2560E+03
      2.622  0.0000E+00  0.0000E+00  0.2560E+03  0.2560E+03
      2.805  0.0000E+00  0.0000E+00  0.2560E+03  0.2560E+03
      2.987  0.0000E+00  0.0000E+00  0.2560E+03  0.2560E+03
      3.170  0.0000E+00  0.0000E+00  0.2560E+03  0.2560E+03
