   55   55    1    2
  0.1454545E+03  0.2000000E-08  0.2000000E-08  0.2000000E-08  0.5000000E-15
  1.000000000000000E-004
  CAR 
 c2_oh2_ruthenium_mol                    
    166      1    128
 
  0.0000000E+00  0.0000000E+00  0.0000000E+00  0.1000000E+01
    1      -49.098811    -49.098811
    2      -48.943197    -48.943197
    3      -48.700791    -48.700791
    4      -29.117447    -29.117447
    5      -27.545115    -27.545115
    6      -26.837286    -26.837286
    7      -26.548253    -26.548253
    8      -26.164017    -26.164017
    9      -26.140573    -26.140573
   10      -24.037313    -24.037313
   11      -23.001005    -23.001005
   12      -22.489081    -22.489081
   13      -22.434942    -22.434942
   14      -22.314820    -22.314820
   15      -22.217032    -22.217032
   16      -22.038746    -22.038746
   17      -21.509637    -21.509637
   18      -21.118516    -21.118516
   19      -20.799457    -20.799457
   20      -19.597835    -19.597835
   21      -19.314843    -19.314843
   22      -18.722242    -18.722242
   23      -18.457057    -18.457057
   24      -18.123519    -18.123519
   25      -17.906585    -17.906585
   26      -17.819021    -17.819021
   27      -17.637832    -17.637832
   28      -17.600313    -17.600313
   29      -17.306883    -17.306883
   30      -16.790044    -16.790044
   31      -16.620675    -16.620675
   32      -15.876003    -15.876003
   33      -15.756165    -15.756165
   34      -15.583418    -15.583418
   35      -15.281310    -15.281310
   36      -14.765619    -14.765619
   37      -14.696341    -14.696341
   38      -14.674784    -14.674784
   39      -14.329646    -14.329646
   40      -14.119170    -14.119170
   41      -14.046470    -14.046470
   42      -14.008639    -14.008639
   43      -13.918365    -13.918365
   44      -13.797451    -13.797451
   45      -13.791512    -13.791512
   46      -13.520007    -13.520007
   47      -13.377991    -13.377991
   48      -13.329639    -13.329639
   49      -13.245499    -13.245499
   50      -13.182248    -13.182248
   51      -12.978030    -12.978030
   52      -12.955497    -12.955497
   53      -12.732789    -12.732790
   54      -12.698777    -12.698777
   55      -12.479650    -12.479650
   56      -12.418219    -12.418219
   57      -12.314542    -12.314542
   58      -12.289973    -12.289973
   59      -12.134167    -12.134167
   60      -12.018676    -12.018676
   61      -11.718111    -11.718111
   62      -11.316069    -11.316069
   63      -11.254856    -11.254856
   64      -11.165243    -11.165243
   65      -11.121059    -11.121059
   66      -11.084124    -11.084124
   67      -10.770883    -10.770883
   68      -10.755482    -10.755482
   69      -10.591067    -10.591067
   70      -10.397229    -10.397229
   71       -9.964973     -9.964973
   72       -9.938003     -9.938004
   73       -9.843378     -9.843378
   74       -9.771197     -9.771197
   75       -9.719190     -9.719190
   76       -9.630045     -9.630045
   77       -9.407906     -9.407906
   78       -8.980469     -8.980469
   79       -8.738043     -8.738043
   80       -8.402978     -8.402978
   81       -7.418077     -7.418077
   82       -7.266176     -7.266176
   83       -7.119616     -7.119616
   84       -5.703517     -5.703517
   85       -5.031985     -5.031985
   86       -4.992506     -4.992506
   87       -4.249314     -4.249314
   88       -4.169979     -4.169979
   89       -4.121699     -4.121699
   90       -3.984606     -3.984606
   91       -3.914850     -3.914851
   92       -3.532487     -3.532487
   93       -3.424259     -3.424259
   94       -3.070931     -3.070931
   95       -2.786047     -2.786048
   96       -2.745073     -2.745073
   97       -2.068761     -2.068758
   98       -1.714270     -1.714268
   99       -1.540726     -1.540724
  100       -1.332370     -1.332368
  101       -1.288582     -1.288581
  102       -1.217621     -1.217619
  103       -1.127632     -1.127631
  104       -1.019676     -1.019674
  105       -0.876460     -0.876458
  106       -0.840495     -0.840492
  107       -0.670292     -0.670290
  108       -0.643783     -0.643781
  109       -0.536341     -0.536340
  110       -0.526698     -0.526696
  111       -0.441446     -0.441444
  112       -0.324271     -0.324269
  113       -0.255466     -0.255463
  114       -0.139182     -0.139178
  115       -0.024439     -0.024436
  116       -0.008081     -0.008080
  117        0.113656      0.113656
  118        0.169521      0.169523
  119        0.253124      0.253127
  120        0.305958      0.305961
  121        0.339979      0.339981
  122        0.389791      0.389793
  123        0.448144      0.448146
  124        0.484490      0.484493
  125        0.573028      0.573024
  126        0.626345      0.626335
  127        0.647982      0.648010
  128        0.680613      0.680224
