       N       E                     dE             d eps       ncg     rms          rms(c)
DAV:   1     0.908923854958E+03    0.90892E+03   -0.58816E+04   768   0.974E+02
DAV:   2    -0.691804005710E+02   -0.97810E+03   -0.97165E+03  1024   0.160E+02
DAV:   3    -0.391887374873E+03   -0.32271E+03   -0.32210E+03   768   0.849E+01
DAV:   4    -0.412135506082E+03   -0.20248E+02   -0.20219E+02   640   0.280E+01
DAV:   5    -0.412446050761E+03   -0.31054E+00   -0.31039E+00   896   0.371E+00    0.572E+01
DAV:   6    -0.393420380298E+03    0.19026E+02   -0.34982E+02   512   0.231E+01    0.385E+01
DAV:   7    -0.382956368385E+03    0.10464E+02   -0.23208E+01   768   0.205E+01    0.236E+01
DAV:   8    -0.378834277247E+03    0.41221E+01   -0.17088E+01   768   0.955E+00    0.945E+00
DAV:   9    -0.377689491877E+03    0.11448E+01   -0.57757E+00   768   0.474E+00    0.354E+00
DAV:  10    -0.377653175393E+03    0.36316E-01   -0.32973E-01   704   0.139E+00    0.253E+00
DAV:  11    -0.377517465974E+03    0.13571E+00   -0.14685E-01   768   0.936E-01    0.107E+00
DAV:  12    -0.377440489694E+03    0.76976E-01   -0.10505E-01   768   0.727E-01    0.675E-01
DAV:  13    -0.377422235064E+03    0.18255E-01   -0.22499E-02   768   0.408E-01    0.462E-01
DAV:  14    -0.377414603953E+03    0.76311E-02   -0.14029E-02   768   0.300E-01    0.265E-01
DAV:  15    -0.377417577547E+03   -0.29736E-02   -0.47456E-03   768   0.195E-01    0.218E-01
DAV:  16    -0.377427228378E+03   -0.96508E-02   -0.28230E-03   768   0.152E-01    0.998E-02
DAV:  17    -0.377434101543E+03   -0.68732E-02   -0.12830E-03   768   0.104E-01    0.752E-02
DAV:  18    -0.377438990302E+03   -0.48888E-02   -0.45631E-04   768   0.653E-02    0.513E-02
DAV:  19    -0.377441910666E+03   -0.29204E-02   -0.16629E-04   768   0.387E-02    0.308E-02
DAV:  20    -0.377443996525E+03   -0.20859E-02   -0.80533E-05   768   0.267E-02    0.198E-02
DAV:  21    -0.377445381734E+03   -0.13852E-02   -0.36211E-05   768   0.176E-02    0.130E-02
DAV:  22    -0.377446308675E+03   -0.92694E-03   -0.19158E-05   640   0.114E-02    0.917E-03
DAV:  23    -0.377446907367E+03   -0.59869E-03   -0.18354E-05   768   0.904E-03    0.520E-03
DAV:  24    -0.377447160953E+03   -0.25359E-03   -0.41049E-06   640   0.457E-03    0.281E-03
DAV:  25    -0.377447376448E+03   -0.21550E-03   -0.42164E-06   640   0.394E-03    0.179E-03
DAV:  26    -0.377447465582E+03   -0.89134E-04   -0.12397E-06   640   0.207E-03    0.122E-03
DAV:  27    -0.377447531513E+03   -0.65931E-04   -0.94458E-07   640   0.175E-03    0.771E-04
DAV:  28    -0.377447559093E+03   -0.27580E-04   -0.29231E-07   640   0.109E-03    0.475E-04
DAV:  29    -0.377447571583E+03   -0.12490E-04   -0.94342E-09   640   0.611E-04    0.314E-04
DAV:  30    -0.377447581389E+03   -0.98060E-05    0.17850E-08   640   0.541E-04
   1 F= -.37744758E+03 E0= -.37744758E+03  d E =-.703834E-58  mag=    -0.0000
