 vasp.5.3.5 31Mar14 (build Apr 08 2014 12:00:03) complex                        
  
 VASP binary ID code NSC-NSCPATCH-BUILD02 date 2017.03.15  18:52:22
 running on   64 total cores
 distrk:  each k-point on   64 cores,    1 groups
 distr:  one band on NCORES_PER_BAND=   1 cores,   64 groups


--------------------------------------------------------------------------------------------------------


 INCAR:
 POTCAR:    PAW_PBE C_h 06Feb2004                 
 POTCAR:    PAW_PBE C_h 06Feb2004                 
 POTCAR:    PAW_PBE H 15Jun2001                   
 POTCAR:    PAW_PBE N_h 06Feb2004                 
 POTCAR:    PAW_PBE O_h 06Feb2004                 
 POTCAR:    PAW_PBE Ru_pv 28Jan2005               

 ----------------------------------------------------------------------------- 
|                                                                             |
|           W    W    AA    RRRRR   N    N  II  N    N   GGGG   !!!           |
|           W    W   A  A   R    R  NN   N  II  NN   N  G    G  !!!           |
|           W    W  A    A  R    R  N N  N  II  N N  N  G       !!!           |
|           W WW W  AAAAAA  RRRRR   N  N N  II  N  N N  G  GGG   !            |
|           WW  WW  A    A  R   R   N   NN  II  N   NN  G    G                |
|           W    W  A    A  R    R  N    N  II  N    N   GGGG   !!!           |
|                                                                             |
|      For optimal performance we recommend to set                            |
|        NCORE= 4 - approx SQRT( number of cores)                             |
|      NCORE specifies how many cores store one orbital (NPAR=cpu/NCORE).     |
|      This setting can  greatly improve the performance of VASP for DFT.     |
|      The default, NPAR=number of cores might be grossly inefficient         |
|      on modern multi-core architectures or massively parallel machines.     |
|      Do your own testing !!!!                                               |
|      Unfortunately you need to use the default for GW and RPA calculations. |
|      (for HF NCORE is supported but not extensively tested yet)             |
|                                                                             |
 ----------------------------------------------------------------------------- 

 POTCAR:    PAW_PBE C_h 06Feb2004                 
   VRHFIN =C: s2p2                                                              
   LEXCH  = PE                                                                  
   EATOM  =   147.1560 eV,   10.8157 Ry                                         
                                                                                
   TITEL  = PAW_PBE C_h 06Feb2004                                               
   LULTRA =        F    use ultrasoft PP ?                                      
   IUNSCR =        1    unscreen: 0-lin 1-nonlin 2-no                           
   RPACOR =    0.800    partial core radius                                     
   POMASS =   12.011; ZVAL   =    4.000    mass and valenz                      
   RCORE  =    1.100    outmost cutoff radius                                   
   RWIGS  =    1.630; RWIGS  =    0.863    wigner-seitz radius (au A)           
   ENMAX  =  700.000; ENMIN  =  500.000 eV                                      
   ICORE  =        2    local potential                                         
   LCOR   =        T    correct aug charges                                     
   LPAW   =        T    paw PP                                                  
   EAUG   =  946.768                                                            
   DEXC   =    0.000                                                            
   RMAX   =    1.128    core radius for proj-oper                               
   RAUG   =    1.300    factor for augmentation sphere                          
   RDEP   =    1.162    radius for radial grids                                 
   RDEPT  =    1.088    core radius for aug-charge                              
                                                                                
   Atomic configuration                                                         
    4 entries                                                                   
     n  l   j            E        occ.                                          
     1  0  0.50      -273.3789   2.0000                                         
     2  0  0.50       -13.7508   2.0000                                         
     2  1  0.50        -5.2854   2.0000                                         
     3  2  1.50        -5.4423   0.0000                                         
   Description                                                                  
     l       E           TYP  RCUT    TYP  RCUT                                 
     0    -13.7508458     23  1.100                                             
     0     -8.2022199     23  1.100                                             
     1     -5.2854383     23  1.100                                             
     1      1.1560700     23  1.100                                             
     2     -5.4423304      7  1.100                                             
  local pseudopotential read in
  partial core-charges read in
  partial kinetic energy density read in
  atomic valenz-charges read in
  non local Contribution for L=           0  read in
    real space projection operators read in
  non local Contribution for L=           0  read in
    real space projection operators read in
  non local Contribution for L=           1  read in
    real space projection operators read in
  non local Contribution for L=           1  read in
    real space projection operators read in
    PAW grid and wavefunctions read in
 
   number of l-projection  operators is LMAX  =           4
   number of lm-projection operators is LMMAX =           8
 
 POTCAR:    PAW_PBE C_h 06Feb2004                 
   VRHFIN =C: s2p2                                                              
   LEXCH  = PE                                                                  
   EATOM  =   147.1560 eV,   10.8157 Ry                                         
                                                                                
   TITEL  = PAW_PBE C_h 06Feb2004                                               
   LULTRA =        F    use ultrasoft PP ?                                      
   IUNSCR =        1    unscreen: 0-lin 1-nonlin 2-no                           
   RPACOR =    0.800    partial core radius                                     
   POMASS =   12.011; ZVAL   =    4.000    mass and valenz                      
   RCORE  =    1.100    outmost cutoff radius                                   
   RWIGS  =    1.630; RWIGS  =    0.863    wigner-seitz radius (au A)           
   ENMAX  =  700.000; ENMIN  =  500.000 eV                                      
   ICORE  =        2    local potential                                         
   LCOR   =        T    correct aug charges                                     
   LPAW   =        T    paw PP                                                  
   EAUG   =  946.768                                                            
   DEXC   =    0.000                                                            
   RMAX   =    1.128    core radius for proj-oper                               
   RAUG   =    1.300    factor for augmentation sphere                          
   RDEP   =    1.162    radius for radial grids                                 
   RDEPT  =    1.088    core radius for aug-charge                              
                                                                                
   Atomic configuration                                                         
    4 entries                                                                   
     n  l   j            E        occ.                                          
     1  0  0.50      -273.3789   2.0000                                         
     2  0  0.50       -13.7508   2.0000                                         
     2  1  0.50        -5.2854   2.0000                                         
     3  2  1.50        -5.4423   0.0000                                         
   Description                                                                  
     l       E           TYP  RCUT    TYP  RCUT                                 
     0    -13.7508458     23  1.100                                             
     0     -8.2022199     23  1.100                                             
     1     -5.2854383     23  1.100                                             
     1      1.1560700     23  1.100                                             
     2     -5.4423304      7  1.100                                             
  local pseudopotential read in
  partial core-charges read in
  partial kinetic energy density read in
  atomic valenz-charges read in
  non local Contribution for L=           0  read in
    real space projection operators read in
  non local Contribution for L=           0  read in
    real space projection operators read in
  non local Contribution for L=           1  read in
    real space projection operators read in
  non local Contribution for L=           1  read in
    real space projection operators read in
    PAW grid and wavefunctions read in
 
   number of l-projection  operators is LMAX  =           4
   number of lm-projection operators is LMMAX =           8
 
 POTCAR:    PAW_PBE H 15Jun2001                   
   VRHFIN =H: ultrasoft test                                                    
   LEXCH  = PE                                                                  
   EATOM  =    12.4884 eV,    0.9179 Ry                                         
                                                                                
   TITEL  = PAW_PBE H 15Jun2001                                                 
   LULTRA =        F    use ultrasoft PP ?                                      
   IUNSCR =        0    unscreen: 0-lin 1-nonlin 2-no                           
   RPACOR =    0.000    partial core radius                                     
   POMASS =    1.000; ZVAL   =    1.000    mass and valenz                      
   RCORE  =    1.100    outmost cutoff radius                                   
   RWIGS  =    0.700; RWIGS  =    0.370    wigner-seitz radius (au A)           
   ENMAX  =  250.000; ENMIN  =  200.000 eV                                      
   RCLOC  =    0.701    cutoff for local pot                                    
   LCOR   =        T    correct aug charges                                     
   LPAW   =        T    paw PP                                                  
   EAUG   =  400.000                                                            
   RMAX   =    1.123    core radius for proj-oper                               
   RAUG   =    1.200    factor for augmentation sphere                          
   RDEP   =    1.112    radius for radial grids                                 
   RDEPT  =    0.926    core radius for aug-charge                              
                                                                                
   Atomic configuration                                                         
    2 entries                                                                   
     n  l   j            E        occ.                                          
     1  0  0.50        -6.4927   1.0000                                         
     2  1  0.50        -3.4015   0.0000                                         
   Description                                                                  
     l       E           TYP  RCUT    TYP  RCUT                                 
     0     -6.4927494     23  1.100                                             
     0      6.8029130     23  1.100                                             
     1     -4.0817478     23  1.100                                             
  local pseudopotential read in
  atomic valenz-charges read in
  non local Contribution for L=           0  read in
    real space projection operators read in
  non local Contribution for L=           0  read in
    real space projection operators read in
  non local Contribution for L=           1  read in
    real space projection operators read in
    PAW grid and wavefunctions read in
 
   number of l-projection  operators is LMAX  =           3
   number of lm-projection operators is LMMAX =           5
 
 POTCAR:    PAW_PBE N_h 06Feb2004                 
   VRHFIN =N: s2p3                                                              
   LEXCH  = PE                                                                  
   EATOM  =   264.5486 eV,   19.4438 Ry                                         
                                                                                
   TITEL  = PAW_PBE N_h 06Feb2004                                               
   LULTRA =        F    use ultrasoft PP ?                                      
   IUNSCR =        1    unscreen: 0-lin 1-nonlin 2-no                           
   RPACOR =    0.800    partial core radius                                     
   POMASS =   14.001; ZVAL   =    5.000    mass and valenz                      
   RCORE  =    1.100    outmost cutoff radius                                   
   RWIGS  =    1.480; RWIGS  =    0.783    wigner-seitz radius (au A)           
   ENMAX  =  700.000; ENMIN  =  500.000 eV                                      
   ICORE  =        2    local potential                                         
   LCOR   =        T    correct aug charges                                     
   LPAW   =        T    paw PP                                                  
   EAUG   =  904.640                                                            
   DEXC   =    0.000                                                            
   RMAX   =    1.127    core radius for proj-oper                               
   RAUG   =    1.300    factor for augmentation sphere                          
   RDEP   =    1.115    radius for radial grids                                 
   RDEPT  =    1.106    core radius for aug-charge                              
                                                                                
   Atomic configuration                                                         
    4 entries                                                                   
     n  l   j            E        occ.                                          
     1  0  0.50      -384.7179   2.0000                                         
     2  0  0.50       -18.5828   2.0000                                         
     2  1  0.50        -7.0898   3.0000                                         
     3  2  1.50        -6.8029   0.0000                                         
   Description                                                                  
     l       E           TYP  RCUT    TYP  RCUT                                 
     0    -18.5828117     23  1.100                                             
     0    -15.0750597     23  1.100                                             
     1     -7.0897851     23  1.100                                             
     1     -1.9663412     23  1.100                                             
     2     -6.8029130      7  1.100                                             
  local pseudopotential read in
  partial core-charges read in
  partial kinetic energy density read in
  kinetic energy density of atom read in
  atomic valenz-charges read in
  non local Contribution for L=           0  read in
    real space projection operators read in
  non local Contribution for L=           0  read in
    real space projection operators read in
  non local Contribution for L=           1  read in
    real space projection operators read in
  non local Contribution for L=           1  read in
    real space projection operators read in
    PAW grid and wavefunctions read in
 
   number of l-projection  operators is LMAX  =           4
   number of lm-projection operators is LMMAX =           8
 
 POTCAR:    PAW_PBE O_h 06Feb2004                 
   VRHFIN =O: s2p4                                                              
   LEXCH  = PE                                                                  
   EATOM  =   432.3788 eV,   31.7789 Ry                                         
                                                                                
   TITEL  = PAW_PBE O_h 06Feb2004                                               
   LULTRA =        F    use ultrasoft PP ?                                      
   IUNSCR =        1    unscreen: 0-lin 1-nonlin 2-no                           
   RPACOR =    0.800    partial core radius                                     
   POMASS =   16.000; ZVAL   =    6.000    mass and valenz                      
   RCORE  =    1.100    outmost cutoff radius                                   
   RWIGS  =    1.400; RWIGS  =    0.741    wigner-seitz radius (au A)           
   ENMAX  =  700.000; ENMIN  =  500.000 eV                                      
   ICORE  =        2    local potential                                         
   LCOR   =        T    correct aug charges                                     
   LPAW   =        T    paw PP                                                  
   EAUG   =  888.804                                                            
   DEXC   =    0.000                                                            
   RMAX   =    1.128    core radius for proj-oper                               
   RAUG   =    1.300    factor for augmentation sphere                          
   RDEP   =    1.125    radius for radial grids                                 
   RDEPT  =    1.088    core radius for aug-charge                              
                                                                                
   Atomic configuration                                                         
    4 entries                                                                   
     n  l   j            E        occ.                                          
     1  0  0.50      -514.6923   2.0000                                         
     2  0  0.50       -23.9615   2.0000                                         
     2  1  0.50        -9.0305   4.0000                                         
     3  2  1.50        -9.5241   0.0000                                         
   Description                                                                  
     l       E           TYP  RCUT    TYP  RCUT                                 
     0    -23.9615319     23  1.100                                             
     0    -25.3221145     23  1.100                                             
     1     -9.0304911     23  1.100                                             
     1     -5.4802209     23  1.100                                             
     2     -9.5240782      7  1.100                                             
  local pseudopotential read in
  partial core-charges read in
  partial kinetic energy density read in
  atomic valenz-charges read in
  non local Contribution for L=           0  read in
    real space projection operators read in
  non local Contribution for L=           0  read in
    real space projection operators read in
  non local Contribution for L=           1  read in
    real space projection operators read in
  non local Contribution for L=           1  read in
    real space projection operators read in
    PAW grid and wavefunctions read in
 
   number of l-projection  operators is LMAX  =           4
   number of lm-projection operators is LMMAX =           8
 
 POTCAR:    PAW_PBE Ru_pv 28Jan2005               
   VRHFIN =Ru: 4p5s4d                                                           
   LEXCH  = PE                                                                  
   EATOM  =  1873.4746 eV,  137.6965 Ry                                         
                                                                                
   TITEL  = PAW_PBE Ru_pv 28Jan2005                                             
   LULTRA =        F    use ultrasoft PP ?                                      
   IUNSCR =        1    unscreen: 0-lin 1-nonlin 2-no                           
   RPACOR =    2.170    partial core radius                                     
   POMASS =  101.070; ZVAL   =   14.000    mass and valenz                      
   RCORE  =    2.500    outmost cutoff radius                                   
   RWIGS  =    2.650; RWIGS  =    1.402    wigner-seitz radius (au A)           
   ENMAX  =  240.049; ENMIN  =  180.037 eV                                      
   ICORE  =        3    local potential                                         
   LCOR   =        T    correct aug charges                                     
   LPAW   =        T    paw PP                                                  
   EAUG   =  430.792                                                            
   DEXC   =    0.000                                                            
   RMAX   =    2.546    core radius for proj-oper                               
   RAUG   =    1.300    factor for augmentation sphere                          
   RDEP   =    2.520    radius for radial grids                                 
   RDEPT  =    2.044    core radius for aug-charge                              
                                                                                
   Atomic configuration                                                         
   11 entries                                                                   
     n  l   j            E        occ.                                          
     1  0  0.50    -21933.2692   2.0000                                         
     2  0  0.50     -3153.4096   2.0000                                         
     2  1  1.50     -2823.9548   6.0000                                         
     3  0  0.50      -555.3322   2.0000                                         
     3  1  1.50      -447.1024   6.0000                                         
     3  2  2.50      -273.0570  10.0000                                         
     4  0  0.50       -76.3589   2.0000                                         
     4  1  1.50       -46.4050   6.0000                                         
     4  2  2.50        -5.2029   7.0000                                         
     5  0  0.50        -4.2392   1.0000                                         
     4  3  2.50        -1.3606   0.0000                                         
   Description                                                                  
     l       E           TYP  RCUT    TYP  RCUT                                 
     1    -46.4050190     23  2.100                                             
     1      4.0817478     23  2.100                                             
     2     -5.2028758     23  2.500                                             
     2     -6.5634584     23  2.500                                             
     0     -4.2392192     23  2.500                                             
     0      7.0918828     23  2.500                                             
     3     -5.4423304     23  2.500                                             
  local pseudopotential read in
  partial core-charges read in
  partial kinetic energy density read in
  atomic valenz-charges read in
  non local Contribution for L=           1  read in
    real space projection operators read in
  non local Contribution for L=           1  read in
    real space projection operators read in
  non local Contribution for L=           2  read in
    real space projection operators read in
  non local Contribution for L=           2  read in
    real space projection operators read in
  non local Contribution for L=           0  read in
    real space projection operators read in
  non local Contribution for L=           0  read in
    real space projection operators read in
    PAW grid and wavefunctions read in
 
   number of l-projection  operators is LMAX  =           6
   number of lm-projection operators is LMMAX =          18
 
 Optimization of the real space projectors (new method)

 maximal supplied QI-value         = 34.20
 optimisation between [QCUT,QGAM] = [ 13.34, 27.02] = [ 49.83,204.46] Ry 
 Optimized for a Real-space Cutoff    1.04 Angstroem

   l    n(q)    QCUT    max X(q) W(low)/X(q) W(high)/X(q)  e(spline) 
   0      8    13.340   134.812    0.72E-04    0.21E-03    0.27E-06
   0      8    13.340    80.524    0.70E-04    0.21E-03    0.27E-06
   1      8    13.340    79.026    0.21E-03    0.16E-03    0.33E-06
   1      8    13.340    45.188    0.20E-03    0.15E-03    0.33E-06
 Optimization of the real space projectors (new method)

 maximal supplied QI-value         = 34.20
 optimisation between [QCUT,QGAM] = [ 13.34, 27.02] = [ 49.83,204.46] Ry 
 Optimized for a Real-space Cutoff    1.04 Angstroem

   l    n(q)    QCUT    max X(q) W(low)/X(q) W(high)/X(q)  e(spline) 
   0      8    13.340   134.812    0.72E-04    0.21E-03    0.27E-06
   0      8    13.340    80.524    0.70E-04    0.21E-03    0.27E-06
   1      8    13.340    79.026    0.21E-03    0.16E-03    0.33E-06
   1      8    13.340    45.188    0.20E-03    0.15E-03    0.33E-06
 Optimization of the real space projectors (new method)

 maximal supplied QI-value         = 34.20
 optimisation between [QCUT,QGAM] = [ 13.34, 27.02] = [ 49.83,204.46] Ry 
 Optimized for a Real-space Cutoff    0.98 Angstroem

   l    n(q)    QCUT    max X(q) W(low)/X(q) W(high)/X(q)  e(spline) 
   0      8    13.340    19.460    0.18E-03    0.41E-04    0.19E-06
   0      8    13.340    12.209    0.17E-03    0.45E-04    0.18E-06
   1      7    13.340     4.655    0.16E-03    0.30E-03    0.14E-06
 Optimization of the real space projectors (new method)

 maximal supplied QI-value         = 34.20
 optimisation between [QCUT,QGAM] = [ 13.34, 27.02] = [ 49.83,204.46] Ry 
 Optimized for a Real-space Cutoff    1.04 Angstroem

   l    n(q)    QCUT    max X(q) W(low)/X(q) W(high)/X(q)  e(spline) 
   0      8    13.340   148.539    0.85E-04    0.19E-03    0.21E-06
   0      8    13.340   106.192    0.84E-04    0.19E-03    0.21E-06
   1      8    13.340    73.877    0.18E-03    0.11E-03    0.36E-06
   1      8    13.340    50.042    0.17E-03    0.11E-03    0.36E-06
 Optimization of the real space projectors (new method)

 maximal supplied QI-value         = 34.20
 optimisation between [QCUT,QGAM] = [ 13.34, 27.02] = [ 49.83,204.46] Ry 
 Optimized for a Real-space Cutoff    0.98 Angstroem

   l    n(q)    QCUT    max X(q) W(low)/X(q) W(high)/X(q)  e(spline) 
   0      8    13.340   280.207    0.16E-03    0.35E-03    0.14E-06
   0      8    13.340   228.978    0.16E-03    0.35E-03    0.14E-06
   1      7    13.340    86.127    0.23E-03    0.25E-04    0.30E-06
   1      7    13.340    65.368    0.22E-03    0.27E-04    0.30E-06
 Optimization of the real space projectors (new method)

 maximal supplied QI-value         = 15.12
 optimisation between [QCUT,QGAM] = [ 13.45, 27.06] = [ 50.69,205.06] Ry 
 Optimized for a Real-space Cutoff    1.40 Angstroem

   l    n(q)    QCUT    max X(q) W(low)/X(q) W(high)/X(q)  e(spline) 
   1     11    13.455     3.180    0.18E-04    0.25E-04    0.55E-07
   1     11    13.455     5.351    0.12E-03    0.15E-03    0.24E-06
   2     10    13.455    66.565    0.13E-03    0.46E-04    0.26E-06
   2     10    13.455    63.466    0.13E-03    0.47E-04    0.27E-06
   0     11    13.455    85.644    0.47E-04    0.16E-04    0.33E-06
   0     11    13.455    44.119    0.43E-04    0.15E-04    0.30E-06
  PAW_PBE C_h 06Feb2004                 :
 energy of atom  1       EATOM= -147.1560
 kinetic energy error for atom=    0.0286 (will be added to EATOM!!)
  PAW_PBE C_h 06Feb2004                 :
 energy of atom  2       EATOM= -147.1560
 kinetic energy error for atom=    0.0286 (will be added to EATOM!!)
  PAW_PBE H 15Jun2001                   :
 energy of atom  3       EATOM=  -12.4884
 kinetic energy error for atom=    0.0002 (will be added to EATOM!!)
  PAW_PBE N_h 06Feb2004                 :
 energy of atom  4       EATOM= -264.5486
 kinetic energy error for atom=    0.0847 (will be added to EATOM!!)
  PAW_PBE O_h 06Feb2004                 :
 energy of atom  5       EATOM= -432.3788
 kinetic energy error for atom=    0.1855 (will be added to EATOM!!)
  PAW_PBE Ru_pv 28Jan2005               :
 energy of atom  6       EATOM=-1873.4746
 kinetic energy error for atom=    0.0017 (will be added to EATOM!!)
 
 
 POSCAR: C C H N O Ru                            
  positions in direct lattice
  velocities in cartesian coordinates
 exchange correlation table for  LEXCH =        8
   RHO(1)=    0.500       N(1)  =     2000
   RHO(2)=  100.500       N(2)  =     4000
 


--------------------------------------------------------------------------------------------------------


 ion  position               nearest neighbor table
   1  0.476  0.626  0.677-  44 1.09  20 1.39  18 1.40
   2  0.438  0.566  0.328-  43 1.09   3 1.39   6 1.39
   3  0.456  0.524  0.381-  38 1.09  49 1.36   2 1.39
   4  0.474  0.615  0.450-  34 1.09  49 1.36   5 1.39
   5  0.456  0.660  0.399-  33 1.09   4 1.39   6 1.40
   6  0.438  0.635  0.337-  32 1.09   2 1.39   5 1.40
   7  0.523  0.330  0.675-  26 1.09   8 1.39  16 1.40
   8  0.497  0.372  0.626-  31 1.09  51 1.36   7 1.39
   9  0.602  0.419  0.606-  51 1.37  10 1.40  14 1.47
  10  0.631  0.378  0.654-  28 1.09  16 1.39   9 1.40
  11  0.740  0.529  0.535-  41 1.09  15 1.39  12 1.40
  12  0.701  0.566  0.490-  37 1.09  13 1.39  11 1.40
  13  0.633  0.554  0.487-  47 1.09  53 1.36  12 1.39
  14  0.640  0.469  0.567-  53 1.37  15 1.40   9 1.47
  15  0.708  0.480  0.573-  36 1.09  11 1.39  14 1.40
  16  0.591  0.332  0.689-  27 1.09  10 1.39   7 1.40
  17  0.362  0.489  0.564-  50 1.37  19 1.40  21 1.46
  18  0.408  0.622  0.691-  48 1.09  22 1.39   1 1.40
  19  0.293  0.477  0.568-  45 1.09  25 1.39  17 1.40
  20  0.503  0.586  0.627-  42 1.09  52 1.36   1 1.39
  21  0.398  0.538  0.604-  52 1.38  22 1.40  17 1.46
  22  0.369  0.578  0.654-  30 1.09  18 1.39  21 1.40
  23  0.373  0.406  0.482-  39 1.09  50 1.35  24 1.39
  24  0.305  0.392  0.484-  40 1.09  23 1.39  25 1.40
  25  0.264  0.428  0.528-  46 1.09  19 1.39  24 1.40
  26  0.490  0.295  0.701-   7 1.09
  27  0.613  0.300  0.727-  16 1.09
  28  0.684  0.381  0.665-  10 1.09
  29  0.542  0.362  0.461-  54 0.97
  30  0.316  0.573  0.664-  22 1.09
  31  0.444  0.371  0.614-   8 1.09
  32  0.424  0.668  0.296-   6 1.09
  33  0.456  0.713  0.410-   5 1.09
  34  0.488  0.634  0.499-   4 1.09
  35  0.569  0.418  0.415-  54 0.98
  36  0.738  0.450  0.608-  15 1.09
  37  0.723  0.605  0.459-  12 1.09
  38  0.456  0.470  0.375-   3 1.09
  39  0.406  0.379  0.449-  23 1.09
  40  0.284  0.353  0.452-  24 1.09
  41  0.793  0.537  0.539-  11 1.09
  42  0.556  0.588  0.614-  20 1.09
  43  0.424  0.543  0.280-   2 1.09
  44  0.509  0.660  0.704-   1 1.09
  45  0.263  0.506  0.603-  19 1.09
  46  0.211  0.418  0.531-  25 1.09
  47  0.601  0.582  0.453-  13 1.09
  48  0.385  0.653  0.729-  18 1.09
  49  0.474  0.548  0.441-   4 1.36   3 1.36  55 2.12
  50  0.402  0.453  0.521-  23 1.35  17 1.37  55 2.06
  51  0.535  0.416  0.592-   8 1.36   9 1.37  55 2.06
  52  0.465  0.543  0.590-  20 1.36  21 1.38  55 2.01
  53  0.601  0.507  0.524-  13 1.36  14 1.37  55 2.08
  54  0.531  0.406  0.442-  29 0.97  35 0.98  55 2.24
  55  0.501  0.481  0.519-  52 2.01  50 2.06  51 2.06  53 2.08  49 2.12  54 2.24
 
  LATTYP: Found a simple cubic cell.
 ALAT       =    20.0000000000
  
  Lattice vectors:
  
 A1 = (  20.0000000000,   0.0000000000,   0.0000000000)
 A2 = (   0.0000000000,  20.0000000000,   0.0000000000)
 A3 = (   0.0000000000,   0.0000000000,  20.0000000000)


Analysis of symmetry for initial positions (statically):
=====================================================================
 Subroutine PRICEL returns:
 Original cell was already a primitive cell.
 

 Routine SETGRP: Setting up the symmetry group for a 
 simple cubic supercell.


 Subroutine GETGRP returns: Found  1 space group operations
 (whereof  1 operations were pure point group operations)
 out of a pool of 48 trial point group operations.


The static configuration has the point symmetry C_1 .


Analysis of symmetry for dynamics (positions and initial velocities):
=====================================================================
 Subroutine PRICEL returns:
 Original cell was already a primitive cell.
 

 Routine SETGRP: Setting up the symmetry group for a 
 simple cubic supercell.


 Subroutine GETGRP returns: Found  1 space group operations
 (whereof  1 operations were pure point group operations)
 out of a pool of 48 trial point group operations.


The dynamic configuration has the point symmetry C_1 .


Analysis of constrained symmetry for selective dynamics:
=====================================================================
 Subroutine PRICEL returns:
 Original cell was already a primitive cell.
 

 Routine SETGRP: Setting up the symmetry group for a 
 simple cubic supercell.


 Subroutine GETGRP returns: Found  1 space group operations
 (whereof  1 operations were pure point group operations)
 out of a pool of 48 trial point group operations.


The constrained configuration has the point symmetry C_1 .


Analysis of magnetic symmetry:
=====================================================================
 Subroutine PRICEL returns:
 Original cell was already a primitive cell.
 

 Subroutine MAGSYM returns: Found  1 space group operations
 (whereof  1 operations were pure point group operations)
 out of a pool of  1 trial space group operations
 (whereof  1 operations were pure point group operations)
 and found also     1 'primitive' translations


The magnetic configuration has the point symmetry C_1 .
 
 
 KPOINTS: K-Points                                

Automatic generation of k-mesh.
Space group operators:
 irot       det(A)        alpha          n_x          n_y          n_z        tau_x        tau_y        tau_z
    1     1.000000     0.000000     1.000000     0.000000     0.000000     0.000000     0.000000     0.000000
 
 Subroutine IBZKPT returns following result:
 ===========================================
 
 Found      1 irreducible k-points:
 
 Following reciprocal coordinates:
            Coordinates               Weight
  0.000000  0.000000  0.000000      1.000000
 
 Following cartesian coordinates:
            Coordinates               Weight
  0.000000  0.000000  0.000000      1.000000
 


--------------------------------------------------------------------------------------------------------




 Dimension of arrays:
   k-points           NKPTS =      1   k-points in BZ     NKDIM =      1   number of bands    NBANDS=    128
   number of dos      NEDOS =    301   number of ions     NIONS =     55
   non local maximal  LDIM  =      6   non local SUM 2l+1 LMDIM =     18
   total plane-waves  NPLWV = ******
   max r-space proj   IRMAX =   8473   max aug-charges    IRDMAX= 268848
   dimension x,y,z NGX =   180 NGY =  180 NGZ =  180
   dimension x,y,z NGXF=   360 NGYF=  360 NGZF=  360
   support grid    NGXF=   720 NGYF=  720 NGZF=  720
   ions per type =               1  24  23   5   1   1
 NGX,Y,Z   is equivalent  to a cutoff of  14.96, 14.96, 14.96 a.u.
 NGXF,Y,Z  is equivalent  to a cutoff of  29.92, 29.92, 29.92 a.u.


 I would recommend the setting:
   dimension x,y,z NGX =   173 NGY =  173 NGZ =  173
 SYSTEM =  c2_oh2_ruthenium_mol                    
 POSCAR =  C C H N O Ru                            

 Startparameter for this run:
   NWRITE =      2    write-flag & timer
   PREC   = accura    normal or accurate (medium, high low for compatibility)
   ISTART =      0    job   : 0-new  1-cont  2-samecut
   ICHARG =      2    charge: 1-file 2-atom 10-const
   ISPIN  =      2    spin polarized calculation?
   LNONCOLLINEAR =      F non collinear calculations
   LSORBIT =      F    spin-orbit coupling
   INIWAV =      1    electr: 0-lowe 1-rand  2-diag
   LASPH  =      F    aspherical Exc in radial PAW
   METAGGA=      F    non-selfconsistent MetaGGA calc.

 Electronic Relaxation 1
   ENCUT  =  700.0 eV  51.45 Ry    7.17 a.u.  43.15 43.15 43.15*2*pi/ulx,y,z
   ENINI  =  700.0     initial cutoff
   ENAUG  =  946.8 eV  augmentation charge cutoff
   NELM   =     60;   NELMIN=  2; NELMDL= -5     # of ELM steps 
   EDIFF  = 0.1E-04   stopping-criterion for ELM
   LREAL  =      T    real-space projection
   NLSPLINE    = F    spline interpolate recip. space projectors
   LCOMPAT=      F    compatible to vasp.4.4
   GGA_COMPAT  = T    GGA compatible to vasp.4.4-vasp.4.6
   LMAXPAW     = -100 max onsite density
   LMAXMIX     =    2 max onsite mixed and CHGCAR
   VOSKOWN=      0    Vosko Wilk Nusair interpolation
   ROPT   =   -0.00025  -0.00025  -0.00025  -0.00025
   ROPT   =   -0.00025  -0.00025
 Ionic relaxation
   EDIFFG = -.1E-01   stopping-criterion for IOM
   NSW    =      0    number of steps for IOM
   NBLOCK =      1;   KBLOCK =      1    inner block; outer block 
   IBRION =     -1    ionic relax: 0-MD 1-quasi-New 2-CG
   NFREE  =      0    steps in history (QN), initial steepest desc. (CG)
   ISIF   =      2    stress and relaxation
   IWAVPR =     10    prediction:  0-non 1-charg 2-wave 3-comb
   ISYM   =      2    0-nonsym 1-usesym 2-fastsym
   LCORR  =      T    Harris-Foulkes like correction to forces

   POTIM  = 0.5000    time-step for ionic-motion
   TEIN   =    0.0    initial temperature
   TEBEG  =    0.0;   TEEND  =   0.0 temperature during run
   SMASS  =  -3.00    Nose mass-parameter (am)
   estimated Nose-frequenzy (Omega)   =  0.10E-29 period in steps =****** mass=  -0.914E-26a.u.
   SCALEE = 1.0000    scale energy and forces
   NPACO  =    256;   APACO  = 16.0  distance and # of slots for P.C.
   PSTRESS=    0.0 pullay stress

  Mass of Ions in am
   POMASS =  12.01 12.01  1.00 14.00 16.00101.07
  Ionic Valenz
   ZVAL   =   4.50  4.00  1.00  5.00  6.00 14.00
  Atomic Wigner-Seitz radii
   RWIGS  =  -1.00 -1.00 -1.00 -1.00 -1.00 -1.00
  virtual crystal weights 
   VCA    =   1.00  1.00  1.00  1.00  1.00  1.00
   NELECT =     166.0000    total number of electrons
   NUPDOWN=       0.0000    fix difference up-down

 DOS related values:
   EMIN   =  10.00;   EMAX   =-10.00  energy-range for DOS
   EFERMI =   0.00
   ISMEAR =     0;   SIGMA  =   0.01  broadening in eV -4-tet -1-fermi 0-gaus

 Electronic relaxation 2 (details)
   IALGO  =     38    algorithm
   LDIAG  =      T    sub-space diagonalisation (order eigenvalues)
   LSUBROT=      F    optimize rotation matrix (better conditioning)
   TURBO    =      0    0=normal 1=particle mesh
   IRESTART =      0    0=no restart 2=restart with 2 vectors
   NREBOOT  =      0    no. of reboots
   NMIN     =      0    reboot dimension
   EREF     =   0.00    reference energy to select bands
   IMIX   =      4    mixing-type and parameters
     AMIX     =   0.40;   BMIX     =  2.00
     AMIX_MAG =   1.60;   BMIX_MAG =  2.00
     AMIN     =   0.10
     WC   =   100.;   INIMIX=   1;  MIXPRE=   1;  MAXMIX= -45

 Intra band minimization:
   WEIMIN = 0.0000     energy-eigenvalue tresh-hold
   EBREAK =  0.20E-07  absolut break condition
   DEPER  =   0.30     relativ break condition  

   TIME   =   0.05     timestep for ELM

  volume/ion in A,a.u.               =     145.45       981.58
  Fermi-wavevector in a.u.,A,eV,Ry     =   0.449864  0.850119  2.753510  0.202377
  Thomas-Fermi vector in A             =   1.430192
 
 Write flags
   LWAVE  =      T    write WAVECAR
   LCHARG =      T    write CHGCAR
   LVTOT  =      F    write LOCPOT, total local potential
   LVHAR  =      F    write LOCPOT, Hartree potential only
   LELF   =      F    write electronic localiz. function (ELF)
   LORBIT =      0    0 simple, 1 ext, 2 COOP (PROOUT)


 Dipole corrections
   LMONO  =      F    monopole corrections only (constant potential shift)
   LDIPOL =      F    correct potential (dipole corrections)
   IDIPOL =      0    1-x, 2-y, 3-z, 4-all directions 
   EPSILON=  1.0000000 bulk dielectric constant

 Core level calculations are selected ICORELEVEL =  2
  CLNT =           1       CLN =     1
  CLL  =           0       CLZ = 0.500
 Exchange correlation treatment:
   GGA     =    --    GGA type
   LEXCH   =     8    internal setting for exchange type
   VOSKOWN=      0    Vosko Wilk Nusair interpolation
   LHFCALC =     F    Hartree Fock is set to
   LHFONE  =     F    Hartree Fock one center treatment
   AEXX    =    0.0000 exact exchange contribution

 Linear response parameters
   LEPSILON=     F    determine dielectric tensor
   LRPA    =     F    only Hartree local field effects (RPA)
   LNABLA  =     F    use nabla operator in PAW spheres
   LVEL    =     F    velocity operator in full k-point grid
   LINTERFAST=   F  fast interpolation
   KINTER  =     0    interpolate to denser k-point grid
   CSHIFT  =0.1000    complex shift for real part using Kramers Kronig
   OMEGAMAX=  -1.0    maximum frequency
   DEG_THRESHOLD= 0.2000000E-02 threshold for treating states as degnerate
   RTIME   =    0.100 relaxation time in fs

 Orbital magnetization related:
   ORBITALMAG=     F  switch on orbital magnetization
   LCHIMAG   =     F  perturbation theory with respect to B field
   DQ        =  0.001000  dq finite difference perturbation B field



--------------------------------------------------------------------------------------------------------


 Static calculation
 charge density and potential will be updated during run
 spin polarized calculation
 Variant of blocked Davidson
 Davidson routine will perform the subspace rotation
 perform sub-space diagonalisation
    after iterative eigenvector-optimisation
 modified Broyden-mixing scheme, WC =      100.0
 initial mixing is a Kerker type mixing with AMIX =  0.4000 and BMIX =      2.0000
 Hartree-type preconditioning will be used
 using additional bands           45
 real space projection scheme for non local part
 use partial core corrections
 calculate Harris-corrections to forces 
   (improved forces if not selfconsistent)
 use gradient corrections 
 use of overlap-Matrix (Vanderbilt PP)
 Gauss-broadening in eV      SIGMA  =   0.01


--------------------------------------------------------------------------------------------------------


  energy-cutoff  :      700.00
  volume of cell :     8000.00
      direct lattice vectors                 reciprocal lattice vectors
    20.000000000  0.000000000  0.000000000     0.050000000  0.000000000  0.000000000
     0.000000000 20.000000000  0.000000000     0.000000000  0.050000000  0.000000000
     0.000000000  0.000000000 20.000000000     0.000000000  0.000000000  0.050000000

  length of vectors
    20.000000000 20.000000000 20.000000000     0.050000000  0.050000000  0.050000000


 
 k-points in units of 2pi/SCALE and weight: K-Points                                
   0.00000000  0.00000000  0.00000000       1.000
 
 k-points in reciprocal lattice and weights: K-Points                                
   0.00000000  0.00000000  0.00000000       1.000
 
 position of ions in fractional coordinates (direct lattice) 
   0.47619960  0.62606623  0.67660612
   0.43793752  0.56561110  0.32757008
   0.45581208  0.52423376  0.38051465
   0.47372925  0.61530131  0.44986522
   0.45595175  0.65963312  0.39935201
   0.43785737  0.63472201  0.33675972
   0.52307882  0.32955005  0.67474498
   0.49710163  0.37190466  0.62618823
   0.60227374  0.41933300  0.60593616
   0.63096398  0.37761922  0.65422416
   0.73964927  0.52855915  0.53463181
   0.70082162  0.56612858  0.49044049
   0.63257913  0.55363620  0.48652424
   0.63952130  0.46927713  0.56732841
   0.70843899  0.47974495  0.57314689
   0.59134754  0.33224398  0.68903016
   0.36211554  0.48866484  0.56417415
   0.40790931  0.62211625  0.69058213
   0.29334713  0.47671938  0.56830116
   0.50295190  0.58590820  0.62668073
   0.39825425  0.53800137  0.60426081
   0.36904589  0.57756069  0.65398228
   0.37289802  0.40579857  0.48223443
   0.30486503  0.39173492  0.48443166
   0.26422003  0.42785518  0.52821594
   0.48989745  0.29510618  0.70074864
   0.61334240  0.29968355  0.72673159
   0.68424189  0.38076917  0.66478776
   0.54225374  0.36233861  0.46129841
   0.31579090  0.57306911  0.66420366
   0.44416348  0.37118871  0.61364770
   0.42392665  0.66833230  0.29622671
   0.45642762  0.71313270  0.40950260
   0.48809132  0.63358802  0.49907234
   0.56912778  0.41808713  0.41480476
   0.73767440  0.44963919  0.60776512
   0.72277620  0.60481012  0.45904817
   0.45570253  0.47012894  0.37468790
   0.40614333  0.37888556  0.44852541
   0.28443799  0.35306162  0.45202062
   0.79326502  0.53703787  0.53892527
   0.55589708  0.58769132  0.61440612
   0.42412006  0.54328620  0.27986105
   0.50894741  0.65984570  0.70400156
   0.26265982  0.50568523  0.60265428
   0.21072272  0.41813760  0.53105039
   0.60090654  0.58197914  0.45254259
   0.38544357  0.65296704  0.72941133
   0.47424490  0.54794204  0.44140236
   0.40180479  0.45306079  0.52108436
   0.53520702  0.41608490  0.59173240
   0.46544808  0.54254992  0.59041194
   0.60138410  0.50650621  0.52397638
   0.53073984  0.40562607  0.44215451
   0.50088568  0.48087016  0.51934246
 
 position of ions in cartesian coordinates  (Angst):
   9.52399198 12.52132464 13.53212240
   8.75875044 11.31222209  6.55140167
   9.11624161 10.48467523  7.61029296
   9.47458509 12.30602619  8.99730442
   9.11903505 13.19266234  7.98704025
   8.75714739 12.69444028  6.73519441
  10.46157638  6.59100110 13.49489953
   9.94203263  7.43809325 12.52376455
  12.04547477  8.38665999 12.11872314
  12.61927957  7.55238445 13.08448329
  14.79298537 10.57118301 10.69263621
  14.01643234 11.32257164  9.80880974
  12.65158254 11.07272405  9.73048485
  12.79042597  9.38554253 11.34656829
  14.16877978  9.59489901 11.46293786
  11.82695089  6.64487969 13.78060313
   7.24231077  9.77329687 11.28348299
   8.15818611 12.44232505 13.81164268
   5.86694270  9.53438759 11.36602327
  10.05903801 11.71816400 12.53361469
   7.96508499 10.76002740 12.08521614
   7.38091777 11.55121387 13.07964553
   7.45796037  8.11597149  9.64468853
   6.09730063  7.83469839  9.68863321
   5.28440067  8.55710369 10.56431882
   9.79794892  5.90212351 14.01497288
  12.26684793  5.99367109 14.53463185
  13.68483783  7.61538334 13.29575520
  10.84507475  7.24677213  9.22596819
   6.31581791 11.46138226 13.28407311
   8.88326966  7.42377422 12.27295397
   8.47853309 13.36664601  5.92453423
   9.12855243 14.26265408  8.19005201
   9.76182647 12.67176037  9.98144677
  11.38255564  8.36174255  8.29609511
  14.75348806  8.99278384 12.15530242
  14.45552391 12.09620238  9.18096343
   9.11405064  9.40257887  7.49375804
   8.12286663  7.57771114  8.97050829
   5.68875982  7.06123239  9.04041232
  15.86530045 10.74075733 10.77850539
  11.11794158 11.75382641 12.28812234
   8.48240128 10.86572407  5.59722093
  10.17894811 13.19691406 14.08003122
   5.25319634 10.11370460 12.05308551
   4.21445446  8.36275200 10.62100772
  12.01813087 11.63958272  9.05085175
   7.70887141 13.05934086 14.58822659
   9.48489793 10.95884088  8.82804729
   8.03609572  9.06121573 10.42168714
  10.70414049  8.32169803 11.83464804
   9.30896151 10.85099836 11.80823871
  12.02768196 10.13012430 10.47952760
  10.61479684  8.11252146  8.84309019
  10.01771355  9.61740316 10.38684921
 


--------------------------------------------------------------------------------------------------------


 k-point  1 :   0.0000 0.0000 0.0000  plane waves:  336427

 maximum and minimum number of plane-waves per node :    336427   336427

 maximum number of plane-waves:    336427
 maximum index in each direction: 
   IXMAX=   43   IYMAX=   43   IZMAX=   43
   IXMIN=  -43   IYMIN=  -43   IZMIN=  -43

 NGX is ok and might be reduce to 174
 NGY is ok and might be reduce to 174
 NGZ is ok and might be reduce to 174

 serial   3D FFT for wavefunctions
 parallel 3D FFT for charge:
    minimum data exchange during FFTs selected (reduces bandwidth)


 total amount of memory used by VASP on root node   877132. kBytes
========================================================================

   base      :      30000. kBytes
   nonlr-proj:      19361. kBytes
   fftplans  :     269516. kBytes
   grid      :     534988. kBytes
   one-center:       1710. kBytes
   wavefun   :      21557. kBytes
 
     INWAV:  cpu time    0.00: real time    0.00
 Broyden mixing: mesh for mixing (old mesh)
   NGX = 87   NGY = 87   NGZ = 87
  (NGX  =360   NGY  =360   NGZ  =360)
  gives a total of 658503 points

 initial charge density was supplied:
 charge density of overlapping atoms calculated
 number of electron     168.5000000 magnetization       0.0000000
 keeping initial charge density in first step


--------------------------------------------------------------------------------------------------------


 Maximum index for non-local projection operator         8166
 Maximum index for augmentation-charges         3214 (set IRDMAX)


--------------------------------------------------------------------------------------------------------


 First call to EWALD:  gamma=   0.089
 Maximum number of real-space cells 3x 3x 3
 Maximum number of reciprocal cells 3x 3x 3

 FEWALD executed in parallel
    FEWALD:  cpu time    0.00: real time    0.00


----------------------------------------- Iteration    1(   1)  ---------------------------------------


    POTLOK:  cpu time    4.72: real time    4.75
    SETDIJ:  cpu time    2.81: real time    2.82
     EDDAV:  cpu time   14.77: real time   15.74
       DOS:  cpu time    0.01: real time    0.01
    --------------------------------------------
      LOOP:  cpu time   22.31: real time   23.32

 eigenvalue-minimisations  :   768
 total energy-change (2. order) : 0.9089239E+03  (-0.5881564E+04)
 number of electron     168.5000000 magnetization       0.0000000
 augmentation part      168.5000000 magnetization       0.0000000

 Free energy of the ion-electron system (eV)
  ---------------------------------------------------
  alpha Z        PSCENC =        12.91687988
  Ewald energy   TEWEN  =     23280.23526213
  -Hartree energ DENC   =    -28882.52963549
  -exchange      EXHF   =         0.00000000
  -V(xc)+E(xc)   XCENC  =       400.93319946
  PAW double counting   =      5890.45591622    -5710.10246236
  entropy T*S    EENTRO =        -0.00000279
  eigenvalues    EBANDS =     -1676.38521329
  atomic energy  EATOM  =      7593.39991119
  ---------------------------------------------------
  free energy    TOTEN  =       908.92385496 eV

  energy without entropy =      908.92385775  energy(sigma->0) =      908.92385635


--------------------------------------------------------------------------------------------------------




----------------------------------------- Iteration    1(   2)  ---------------------------------------


     EDDAV:  cpu time   19.11: real time   20.28
       DOS:  cpu time    0.01: real time    0.01
    --------------------------------------------
      LOOP:  cpu time   19.12: real time   20.29

 eigenvalue-minimisations  :  1024
 total energy-change (2. order) :-0.9781043E+03  (-0.9716483E+03)
 number of electron     168.5000000 magnetization       0.0000000
 augmentation part      168.5000000 magnetization       0.0000000

 Free energy of the ion-electron system (eV)
  ---------------------------------------------------
  alpha Z        PSCENC =        12.91687988
  Ewald energy   TEWEN  =     23280.23526213
  -Hartree energ DENC   =    -28882.52963549
  -exchange      EXHF   =         0.00000000
  -V(xc)+E(xc)   XCENC  =       400.93319946
  PAW double counting   =      5890.45591622    -5710.10246236
  entropy T*S    EENTRO =        -0.00000000
  eigenvalues    EBANDS =     -2654.48947161
  atomic energy  EATOM  =      7593.39991119
  ---------------------------------------------------
  free energy    TOTEN  =       -69.18040057 eV

  energy without entropy =      -69.18040057  energy(sigma->0) =      -69.18040057


--------------------------------------------------------------------------------------------------------




----------------------------------------- Iteration    1(   3)  ---------------------------------------


     EDDAV:  cpu time   14.95: real time   15.87
       DOS:  cpu time    0.01: real time    0.01
    --------------------------------------------
      LOOP:  cpu time   14.97: real time   15.89

 eigenvalue-minimisations  :   768
 total energy-change (2. order) :-0.3227070E+03  (-0.3221019E+03)
 number of electron     168.5000000 magnetization       0.0000000
 augmentation part      168.5000000 magnetization       0.0000000

 Free energy of the ion-electron system (eV)
  ---------------------------------------------------
  alpha Z        PSCENC =        12.91687988
  Ewald energy   TEWEN  =     23280.23526213
  -Hartree energ DENC   =    -28882.52963549
  -exchange      EXHF   =         0.00000000
  -V(xc)+E(xc)   XCENC  =       400.93319946
  PAW double counting   =      5890.45591622    -5710.10246236
  entropy T*S    EENTRO =        -0.00000000
  eigenvalues    EBANDS =     -2977.19644591
  atomic energy  EATOM  =      7593.39991119
  ---------------------------------------------------
  free energy    TOTEN  =      -391.88737487 eV

  energy without entropy =     -391.88737487  energy(sigma->0) =     -391.88737487


--------------------------------------------------------------------------------------------------------




----------------------------------------- Iteration    1(   4)  ---------------------------------------


     EDDAV:  cpu time   12.69: real time   13.40
       DOS:  cpu time    0.00: real time    0.00
    --------------------------------------------
      LOOP:  cpu time   12.70: real time   13.41

 eigenvalue-minimisations  :   640
 total energy-change (2. order) :-0.2024813E+02  (-0.2021867E+02)
 number of electron     168.5000000 magnetization       0.0000000
 augmentation part      168.5000000 magnetization       0.0000000

 Free energy of the ion-electron system (eV)
  ---------------------------------------------------
  alpha Z        PSCENC =        12.91687988
  Ewald energy   TEWEN  =     23280.23526213
  -Hartree energ DENC   =    -28882.52963549
  -exchange      EXHF   =         0.00000000
  -V(xc)+E(xc)   XCENC  =       400.93319946
  PAW double counting   =      5890.45591622    -5710.10246236
  entropy T*S    EENTRO =        -0.00000000
  eigenvalues    EBANDS =     -2997.44457712
  atomic energy  EATOM  =      7593.39991119
  ---------------------------------------------------
  free energy    TOTEN  =      -412.13550608 eV

  energy without entropy =     -412.13550608  energy(sigma->0) =     -412.13550608


--------------------------------------------------------------------------------------------------------




----------------------------------------- Iteration    1(   5)  ---------------------------------------


     EDDAV:  cpu time   17.00: real time   18.03
       DOS:  cpu time    0.01: real time    0.01
    CHARGE:  cpu time    5.19: real time    5.20
    MIXING:  cpu time    0.19: real time    0.19
    --------------------------------------------
      LOOP:  cpu time   22.39: real time   23.44

 eigenvalue-minimisations  :   896
 total energy-change (2. order) :-0.3105447E+00  (-0.3103879E+00)
 number of electron     166.0000000 magnetization       0.0000000
 augmentation part        3.5861770 magnetization      -0.0000038

 Broyden mixing:
  rms(total) = 0.57194E+01    rms(broyden)= 0.57188E+01
  rms(prec ) = 0.60942E+01
  weight for this iteration     100.00

 Free energy of the ion-electron system (eV)
  ---------------------------------------------------
  alpha Z        PSCENC =        12.91687988
  Ewald energy   TEWEN  =     23280.23526213
  -Hartree energ DENC   =    -28882.52963549
  -exchange      EXHF   =         0.00000000
  -V(xc)+E(xc)   XCENC  =       400.93319946
  PAW double counting   =      5890.45591622    -5710.10246236
  entropy T*S    EENTRO =        -0.00000000
  eigenvalues    EBANDS =     -2997.75512180
  atomic energy  EATOM  =      7593.39991119
  ---------------------------------------------------
  free energy    TOTEN  =      -412.44605076 eV

  energy without entropy =     -412.44605076  energy(sigma->0) =     -412.44605076


--------------------------------------------------------------------------------------------------------




----------------------------------------- Iteration    1(   6)  ---------------------------------------


    POTLOK:  cpu time    4.67: real time    4.70
    SETDIJ:  cpu time    2.83: real time    2.83
     EDDAV:  cpu time   10.78: real time   11.44
       DOS:  cpu time    0.01: real time    0.01
    CHARGE:  cpu time    5.11: real time    5.12
    MIXING:  cpu time    0.18: real time    0.18
    --------------------------------------------
      LOOP:  cpu time   23.58: real time   24.29

 eigenvalue-minimisations  :   512
 total energy-change (2. order) : 0.1902567E+02  (-0.3498157E+02)
 number of electron     166.0000000 magnetization      -0.0000000
 augmentation part        6.4691409 magnetization       0.0000570

 Broyden mixing:
  rms(total) = 0.38491E+01    rms(broyden)= 0.38490E+01
  rms(prec ) = 0.40164E+01
  weight for this iteration     100.00

 eigenvalues of (default mixing * dielectric matrix)
  average eigenvalue GAMMA=   1.0701
  1.0701

 Free energy of the ion-electron system (eV)
  ---------------------------------------------------
  alpha Z        PSCENC =        12.91687988
  Ewald energy   TEWEN  =     23280.23526213
  -Hartree energ DENC   =    -28887.73624512
  -exchange      EXHF   =         0.00000000
  -V(xc)+E(xc)   XCENC  =       406.46942255
  PAW double counting   =     20873.23036516   -20705.67425398
  entropy T*S    EENTRO =        -0.00000000
  eigenvalues    EBANDS =     -2966.26172211
  atomic energy  EATOM  =      7593.39991119
  ---------------------------------------------------
  free energy    TOTEN  =      -393.42038030 eV

  energy without entropy =     -393.42038030  energy(sigma->0) =     -393.42038030


--------------------------------------------------------------------------------------------------------




----------------------------------------- Iteration    1(   7)  ---------------------------------------


    POTLOK:  cpu time    4.58: real time    4.60
    SETDIJ:  cpu time    2.81: real time    2.81
     EDDAV:  cpu time   15.04: real time   16.35
       DOS:  cpu time    0.04: real time    0.04
    CHARGE:  cpu time    5.07: real time    5.10
    MIXING:  cpu time    0.20: real time    0.20
    --------------------------------------------
      LOOP:  cpu time   27.75: real time   29.11

 eigenvalue-minimisations  :   768
 total energy-change (2. order) : 0.1046401E+02  (-0.2320762E+01)
 number of electron     166.0000000 magnetization      -0.0000000
 augmentation part        5.5579500 magnetization      -0.0000184

 Broyden mixing:
  rms(total) = 0.23565E+01    rms(broyden)= 0.23565E+01
  rms(prec ) = 0.24265E+01
  weight for this iteration     100.00

 eigenvalues of (default mixing * dielectric matrix)
  average eigenvalue GAMMA=   1.4485
  0.7573  2.1397

 Free energy of the ion-electron system (eV)
  ---------------------------------------------------
  alpha Z        PSCENC =        12.91687988
  Ewald energy   TEWEN  =     23280.23526213
  -Hartree energ DENC   =    -29019.36719432
  -exchange      EXHF   =         0.00000000
  -V(xc)+E(xc)   XCENC  =       411.96286627
  PAW double counting   =     36571.70095914   -36399.36090581
  entropy T*S    EENTRO =        -0.00000000
  eigenvalues    EBANDS =     -2834.44414687
  atomic energy  EATOM  =      7593.39991119
  ---------------------------------------------------
  free energy    TOTEN  =      -382.95636838 eV

  energy without entropy =     -382.95636838  energy(sigma->0) =     -382.95636838


--------------------------------------------------------------------------------------------------------




----------------------------------------- Iteration    1(   8)  ---------------------------------------


    POTLOK:  cpu time    4.58: real time    4.61
    SETDIJ:  cpu time    2.81: real time    2.82
     EDDAV:  cpu time   15.12: real time   16.45
       DOS:  cpu time    0.05: real time    0.05
    CHARGE:  cpu time    5.27: real time    5.29
    MIXING:  cpu time    0.12: real time    0.12
    --------------------------------------------
      LOOP:  cpu time   27.96: real time   29.35

 eigenvalue-minimisations  :   768
 total energy-change (2. order) : 0.4122091E+01  (-0.1708814E+01)
 number of electron     166.0000000 magnetization      -0.0000000
 augmentation part        4.8451932 magnetization      -0.0000067

 Broyden mixing:
  rms(total) = 0.94505E+00    rms(broyden)= 0.94501E+00
  rms(prec ) = 0.10312E+01
  weight for this iteration     100.00

 eigenvalues of (default mixing * dielectric matrix)
  average eigenvalue GAMMA=   1.4606
  2.6918  0.8451  0.8451

 Free energy of the ion-electron system (eV)
  ---------------------------------------------------
  alpha Z        PSCENC =        12.91687988
  Ewald energy   TEWEN  =     23280.23526213
  -Hartree energ DENC   =    -29172.75853831
  -exchange      EXHF   =         0.00000000
  -V(xc)+E(xc)   XCENC  =       419.96831443
  PAW double counting   =     70059.87203996   -69884.40669531
  entropy T*S    EENTRO =        -0.00000000
  eigenvalues    EBANDS =     -2688.06145123
  atomic energy  EATOM  =      7593.39991119
  ---------------------------------------------------
  free energy    TOTEN  =      -378.83427725 eV

  energy without entropy =     -378.83427725  energy(sigma->0) =     -378.83427725


--------------------------------------------------------------------------------------------------------




----------------------------------------- Iteration    1(   9)  ---------------------------------------


    POTLOK:  cpu time    4.58: real time    4.61
    SETDIJ:  cpu time    2.78: real time    2.79
     EDDAV:  cpu time   15.01: real time   16.34
       DOS:  cpu time    0.04: real time    0.05
    CHARGE:  cpu time    5.25: real time    5.26
    MIXING:  cpu time    0.07: real time    0.07
    --------------------------------------------
      LOOP:  cpu time   27.73: real time   29.12

 eigenvalue-minimisations  :   768
 total energy-change (2. order) : 0.1144785E+01  (-0.5775723E+00)
 number of electron     166.0000000 magnetization      -0.0000000
 augmentation part        5.2565339 magnetization       0.0000020

 Broyden mixing:
  rms(total) = 0.35400E+00    rms(broyden)= 0.35397E+00
  rms(prec ) = 0.39220E+00
  weight for this iteration     100.00

 eigenvalues of (default mixing * dielectric matrix)
  average eigenvalue GAMMA=   1.3285
  2.5156  1.2199  0.7893  0.7893

 Free energy of the ion-electron system (eV)
  ---------------------------------------------------
  alpha Z        PSCENC =        12.91687988
  Ewald energy   TEWEN  =     23280.23526213
  -Hartree energ DENC   =    -29188.67988809
  -exchange      EXHF   =         0.00000000
  -V(xc)+E(xc)   XCENC  =       422.48379414
  PAW double counting   =     82532.65121705   -82359.18382617
  entropy T*S    EENTRO =        -0.00000000
  eigenvalues    EBANDS =     -2671.51284200
  atomic energy  EATOM  =      7593.39991119
  ---------------------------------------------------
  free energy    TOTEN  =      -377.68949188 eV

  energy without entropy =     -377.68949188  energy(sigma->0) =     -377.68949188


--------------------------------------------------------------------------------------------------------




----------------------------------------- Iteration    1(  10)  ---------------------------------------


    POTLOK:  cpu time    4.68: real time    4.74
    SETDIJ:  cpu time    2.80: real time    2.81
     EDDAV:  cpu time   13.86: real time   14.80
       DOS:  cpu time    0.06: real time    0.06
    CHARGE:  cpu time    5.27: real time    5.29
    MIXING:  cpu time    0.07: real time    0.08
    --------------------------------------------
      LOOP:  cpu time   26.75: real time   27.77

 eigenvalue-minimisations  :   704
 total energy-change (2. order) : 0.3631648E-01  (-0.3297279E-01)
 number of electron     166.0000000 magnetization      -0.0000000
 augmentation part        5.3393202 magnetization      -0.0000906

 Broyden mixing:
  rms(total) = 0.25254E+00    rms(broyden)= 0.25253E+00
  rms(prec ) = 0.29724E+00
  weight for this iteration     100.00

 eigenvalues of (default mixing * dielectric matrix)
  average eigenvalue GAMMA=   1.3882
  2.4708  1.8369  0.8346  0.8346  0.9643

 Free energy of the ion-electron system (eV)
  ---------------------------------------------------
  alpha Z        PSCENC =        12.91687988
  Ewald energy   TEWEN  =     23280.23526213
  -Hartree energ DENC   =    -29177.00967109
  -exchange      EXHF   =         0.00000000
  -V(xc)+E(xc)   XCENC  =       422.48664333
  PAW double counting   =     81302.77975608   -81129.74305026
  entropy T*S    EENTRO =        -0.00000000
  eigenvalues    EBANDS =     -2682.71890666
  atomic energy  EATOM  =      7593.39991119
  ---------------------------------------------------
  free energy    TOTEN  =      -377.65317539 eV

  energy without entropy =     -377.65317539  energy(sigma->0) =     -377.65317539


--------------------------------------------------------------------------------------------------------




----------------------------------------- Iteration    1(  11)  ---------------------------------------


    POTLOK:  cpu time    4.58: real time    4.61
    SETDIJ:  cpu time    2.81: real time    2.82
     EDDAV:  cpu time   15.00: real time   16.33
       DOS:  cpu time    0.04: real time    0.04
    CHARGE:  cpu time    5.12: real time    5.12
    MIXING:  cpu time    0.11: real time    0.11
    --------------------------------------------
      LOOP:  cpu time   27.66: real time   29.03

 eigenvalue-minimisations  :   768
 total energy-change (2. order) : 0.1357094E+00  (-0.1468462E-01)
 number of electron     166.0000000 magnetization      -0.0000000
 augmentation part        5.2902031 magnetization      -0.0000430

 Broyden mixing:
  rms(total) = 0.10664E+00    rms(broyden)= 0.10664E+00
  rms(prec ) = 0.15055E+00
  weight for this iteration     100.00

 eigenvalues of (default mixing * dielectric matrix)
  average eigenvalue GAMMA=   1.5021
  2.6807  2.6807  0.8484  0.8484  0.9772  0.9772

 Free energy of the ion-electron system (eV)
  ---------------------------------------------------
  alpha Z        PSCENC =        12.91687988
  Ewald energy   TEWEN  =     23280.23526213
  -Hartree energ DENC   =    -29175.84848813
  -exchange      EXHF   =         0.00000000
  -V(xc)+E(xc)   XCENC  =       423.19637478
  PAW double counting   =     81908.14388613   -81734.90785354
  entropy T*S    EENTRO =        -0.00000000
  eigenvalues    EBANDS =     -2684.65343841
  atomic energy  EATOM  =      7593.39991119
  ---------------------------------------------------
  free energy    TOTEN  =      -377.51746597 eV

  energy without entropy =     -377.51746597  energy(sigma->0) =     -377.51746597


--------------------------------------------------------------------------------------------------------




----------------------------------------- Iteration    1(  12)  ---------------------------------------


    POTLOK:  cpu time    4.65: real time    4.81
    SETDIJ:  cpu time    2.81: real time    2.81
     EDDAV:  cpu time   15.03: real time   16.32
       DOS:  cpu time    0.05: real time    0.05
    CHARGE:  cpu time    5.21: real time    5.24
    MIXING:  cpu time    0.14: real time    0.15
    --------------------------------------------
      LOOP:  cpu time   27.89: real time   29.38

 eigenvalue-minimisations  :   768
 total energy-change (2. order) : 0.7697628E-01  (-0.1050512E-01)
 number of electron     166.0000000 magnetization      -0.0000000
 augmentation part        5.2490409 magnetization      -0.0000005

 Broyden mixing:
  rms(total) = 0.67514E-01    rms(broyden)= 0.67510E-01
  rms(prec ) = 0.97514E-01
  weight for this iteration     100.00

 eigenvalues of (default mixing * dielectric matrix)
  average eigenvalue GAMMA=   1.4527
  2.8239  2.8239  0.8559  0.8559  0.9920  0.9920  0.8256

 Free energy of the ion-electron system (eV)
  ---------------------------------------------------
  alpha Z        PSCENC =        12.91687988
  Ewald energy   TEWEN  =     23280.23526213
  -Hartree energ DENC   =    -29170.70368326
  -exchange      EXHF   =         0.00000000
  -V(xc)+E(xc)   XCENC  =       423.83714640
  PAW double counting   =     81617.66989035   -81444.33650502
  entropy T*S    EENTRO =        -0.00000000
  eigenvalues    EBANDS =     -2690.45939136
  atomic energy  EATOM  =      7593.39991119
  ---------------------------------------------------
  free energy    TOTEN  =      -377.44048969 eV

  energy without entropy =     -377.44048969  energy(sigma->0) =     -377.44048969


--------------------------------------------------------------------------------------------------------




----------------------------------------- Iteration    1(  13)  ---------------------------------------


    POTLOK:  cpu time    4.68: real time    4.70
    SETDIJ:  cpu time    2.79: real time    2.81
     EDDAV:  cpu time   15.02: real time   16.34
       DOS:  cpu time    0.05: real time    0.05
    CHARGE:  cpu time    5.09: real time    5.12
    MIXING:  cpu time    0.25: real time    0.25
    --------------------------------------------
      LOOP:  cpu time   27.88: real time   29.28

 eigenvalue-minimisations  :   768
 total energy-change (2. order) : 0.1825463E-01  (-0.2249884E-02)
 number of electron     166.0000000 magnetization      -0.0000000
 augmentation part        5.2594384 magnetization      -0.0000127

 Broyden mixing:
  rms(total) = 0.46230E-01    rms(broyden)= 0.46229E-01
  rms(prec ) = 0.68179E-01
  weight for this iteration     100.00

 eigenvalues of (default mixing * dielectric matrix)
  average eigenvalue GAMMA=   1.5669
  3.2982  2.9201  1.7821  0.8545  0.8545  1.1549  1.0343  0.6365

 Free energy of the ion-electron system (eV)
  ---------------------------------------------------
  alpha Z        PSCENC =        12.91687988
  Ewald energy   TEWEN  =     23280.23526213
  -Hartree energ DENC   =    -29162.94135426
  -exchange      EXHF   =         0.00000000
  -V(xc)+E(xc)   XCENC  =       424.10296026
  PAW double counting   =     81178.08213050   -81004.86608919
  entropy T*S    EENTRO =        -0.00000000
  eigenvalues    EBANDS =     -2698.35193559
  atomic energy  EATOM  =      7593.39991119
  ---------------------------------------------------
  free energy    TOTEN  =      -377.42223506 eV

  energy without entropy =     -377.42223506  energy(sigma->0) =     -377.42223506


--------------------------------------------------------------------------------------------------------




----------------------------------------- Iteration    1(  14)  ---------------------------------------


    POTLOK:  cpu time    4.60: real time    4.62
    SETDIJ:  cpu time    2.77: real time    2.90
     EDDAV:  cpu time   15.03: real time   16.30
       DOS:  cpu time    0.05: real time    0.05
    CHARGE:  cpu time    5.25: real time    5.26
    MIXING:  cpu time    0.09: real time    0.09
    --------------------------------------------
      LOOP:  cpu time   27.79: real time   29.21

 eigenvalue-minimisations  :   768
 total energy-change (2. order) : 0.7631110E-02  (-0.1402927E-02)
 number of electron     166.0000000 magnetization      -0.0000000
 augmentation part        5.2628250 magnetization      -0.0000113

 Broyden mixing:
  rms(total) = 0.26536E-01    rms(broyden)= 0.26534E-01
  rms(prec ) = 0.42012E-01
  weight for this iteration     100.00

 eigenvalues of (default mixing * dielectric matrix)
  average eigenvalue GAMMA=   1.6495
  4.4711  2.5150  2.0860  1.3895  1.0319  1.0319  0.8465  0.8465  0.6270

 Free energy of the ion-electron system (eV)
  ---------------------------------------------------
  alpha Z        PSCENC =        12.91687988
  Ewald energy   TEWEN  =     23280.23526213
  -Hartree energ DENC   =    -29154.20018193
  -exchange      EXHF   =         0.00000000
  -V(xc)+E(xc)   XCENC  =       424.33778942
  PAW double counting   =     80974.93523521   -80801.78136702
  entropy T*S    EENTRO =        -0.00000000
  eigenvalues    EBANDS =     -2707.25813284
  atomic energy  EATOM  =      7593.39991119
  ---------------------------------------------------
  free energy    TOTEN  =      -377.41460395 eV

  energy without entropy =     -377.41460395  energy(sigma->0) =     -377.41460395


--------------------------------------------------------------------------------------------------------




----------------------------------------- Iteration    1(  15)  ---------------------------------------


    POTLOK:  cpu time    4.60: real time    4.62
    SETDIJ:  cpu time    2.79: real time    2.81
     EDDAV:  cpu time   15.05: real time   16.32
       DOS:  cpu time    0.05: real time    0.05
    CHARGE:  cpu time    5.29: real time    5.30
    MIXING:  cpu time    0.10: real time    0.10
    --------------------------------------------
      LOOP:  cpu time   27.89: real time   29.21

 eigenvalue-minimisations  :   768
 total energy-change (2. order) :-0.2973594E-02  (-0.4745584E-03)
 number of electron     166.0000000 magnetization      -0.0000000
 augmentation part        5.2567230 magnetization       0.0000055

 Broyden mixing:
  rms(total) = 0.21772E-01    rms(broyden)= 0.21772E-01
  rms(prec ) = 0.30835E-01
  weight for this iteration     100.00

 eigenvalues of (default mixing * dielectric matrix)
  average eigenvalue GAMMA=   1.7328
  5.2298  2.4128  2.4128  1.6120  1.3333  0.8571  0.8571  1.0449  0.9425  0.6259

 Free energy of the ion-electron system (eV)
  ---------------------------------------------------
  alpha Z        PSCENC =        12.91687988
  Ewald energy   TEWEN  =     23280.23526213
  -Hartree energ DENC   =    -29146.34083278
  -exchange      EXHF   =         0.00000000
  -V(xc)+E(xc)   XCENC  =       424.44409544
  PAW double counting   =     81035.51932303   -80862.33371007
  entropy T*S    EENTRO =        -0.00000000
  eigenvalues    EBANDS =     -2715.25850637
  atomic energy  EATOM  =      7593.39991119
  ---------------------------------------------------
  free energy    TOTEN  =      -377.41757755 eV

  energy without entropy =     -377.41757755  energy(sigma->0) =     -377.41757755


--------------------------------------------------------------------------------------------------------




----------------------------------------- Iteration    1(  16)  ---------------------------------------


    POTLOK:  cpu time    4.62: real time    4.63
    SETDIJ:  cpu time    2.86: real time    2.87
     EDDAV:  cpu time   15.11: real time   16.38
       DOS:  cpu time    0.05: real time    0.06
    CHARGE:  cpu time    5.13: real time    5.15
    MIXING:  cpu time    0.15: real time    0.15
    --------------------------------------------
      LOOP:  cpu time   27.91: real time   29.23

 eigenvalue-minimisations  :   768
 total energy-change (2. order) :-0.9650831E-02  (-0.2823041E-03)
 number of electron     166.0000000 magnetization      -0.0000000
 augmentation part        5.2611796 magnetization       0.0000009

 Broyden mixing:
  rms(total) = 0.99826E-02    rms(broyden)= 0.99820E-02
  rms(prec ) = 0.15654E-01
  weight for this iteration     100.00

 eigenvalues of (default mixing * dielectric matrix)
  average eigenvalue GAMMA=   1.8245
  6.1309  2.7146  2.7146  1.5969  1.5969  0.8561  0.8561  1.0234  1.0234  0.9314
  0.6251

 Free energy of the ion-electron system (eV)
  ---------------------------------------------------
  alpha Z        PSCENC =        12.91687988
  Ewald energy   TEWEN  =     23280.23526213
  -Hartree energ DENC   =    -29136.46553749
  -exchange      EXHF   =         0.00000000
  -V(xc)+E(xc)   XCENC  =       424.41213540
  PAW double counting   =     81090.07130513   -80916.87873623
  entropy T*S    EENTRO =        -0.00000000
  eigenvalues    EBANDS =     -2725.11844840
  atomic energy  EATOM  =      7593.39991119
  ---------------------------------------------------
  free energy    TOTEN  =      -377.42722838 eV

  energy without entropy =     -377.42722838  energy(sigma->0) =     -377.42722838


--------------------------------------------------------------------------------------------------------




----------------------------------------- Iteration    1(  17)  ---------------------------------------


    POTLOK:  cpu time    4.62: real time    4.64
    SETDIJ:  cpu time    2.79: real time    2.80
     EDDAV:  cpu time   15.04: real time   16.35
       DOS:  cpu time    0.05: real time    0.05
    CHARGE:  cpu time    5.18: real time    5.19
    MIXING:  cpu time    0.11: real time    0.11
    --------------------------------------------
      LOOP:  cpu time   27.80: real time   29.13

 eigenvalue-minimisations  :   768
 total energy-change (2. order) :-0.6873165E-02  (-0.1283010E-03)
 number of electron     166.0000000 magnetization      -0.0000000
 augmentation part        5.2629687 magnetization       0.0000042

 Broyden mixing:
  rms(total) = 0.75186E-02    rms(broyden)= 0.75184E-02
  rms(prec ) = 0.10243E-01
  weight for this iteration     100.00

 eigenvalues of (default mixing * dielectric matrix)
  average eigenvalue GAMMA=   1.8768
  6.7779  2.9280  2.9280  1.8227  1.8227  1.1618  0.8573  0.8573  0.9902  0.9902
  0.7603  0.6246

 Free energy of the ion-electron system (eV)
  ---------------------------------------------------
  alpha Z        PSCENC =        12.91687988
  Ewald energy   TEWEN  =     23280.23526213
  -Hartree energ DENC   =    -29130.08077316
  -exchange      EXHF   =         0.00000000
  -V(xc)+E(xc)   XCENC  =       424.36312353
  PAW double counting   =     81126.32617693   -80953.12669453
  entropy T*S    EENTRO =        -0.00000000
  eigenvalues    EBANDS =     -2731.46798752
  atomic energy  EATOM  =      7593.39991119
  ---------------------------------------------------
  free energy    TOTEN  =      -377.43410154 eV

  energy without entropy =     -377.43410154  energy(sigma->0) =     -377.43410154


--------------------------------------------------------------------------------------------------------




----------------------------------------- Iteration    1(  18)  ---------------------------------------


    POTLOK:  cpu time    4.63: real time    4.65
    SETDIJ:  cpu time    2.80: real time    2.80
     EDDAV:  cpu time   15.22: real time   16.54
       DOS:  cpu time    0.05: real time    0.05
    CHARGE:  cpu time    5.06: real time    5.07
    MIXING:  cpu time    0.21: real time    0.21
    --------------------------------------------
      LOOP:  cpu time   27.97: real time   29.32

 eigenvalue-minimisations  :   768
 total energy-change (2. order) :-0.4888759E-02  (-0.4563085E-04)
 number of electron     166.0000000 magnetization      -0.0000000
 augmentation part        5.2622282 magnetization      -0.0000046

 Broyden mixing:
  rms(total) = 0.51339E-02    rms(broyden)= 0.51337E-02
  rms(prec ) = 0.66182E-02
  weight for this iteration     100.00

 eigenvalues of (default mixing * dielectric matrix)
[...]
 12.560   0.000  21.155   0.000  -0.003   0.000  -0.003   0.000  -0.001   0.000  -0.006   0.000  -0.006   0.000  -0.003   0.000
 21.155   0.000  35.631   0.000  -0.006   0.000  -0.005   0.000  -0.002   0.000  -0.010   0.000  -0.010   0.000  -0.004   0.000
 -0.003   0.000  -0.006   0.000  -3.539   0.000  -0.001   0.000  -0.000   0.000  -6.361   0.000  -0.001   0.000  -0.000   0.000
 -0.003   0.000  -0.005   0.000  -0.001   0.000  -3.540   0.000   0.000   0.000  -0.001   0.000  -6.361   0.000   0.001   0.000
 -0.001   0.000  -0.002   0.000  -0.000   0.000   0.000   0.000  -3.540   0.000  -0.000   0.000   0.001   0.000  -6.362   0.000
 -0.006   0.000  -0.010   0.000  -6.361   0.000  -0.001   0.000  -0.000   0.000 -11.410   0.000  -0.002   0.000  -0.000   0.000
 -0.006   0.000  -0.010   0.000  -0.001   0.000  -6.361   0.000   0.001   0.000  -0.002   0.000 -11.411   0.000   0.001   0.000
 -0.003   0.000  -0.004   0.000  -0.000   0.000   0.001   0.000  -6.362   0.000  -0.000   0.000   0.001   0.000 -11.413   0.000
 pseudopotential strength for first ion, spin component:           2
 12.560   0.000  21.155   0.000  -0.003   0.000  -0.003   0.000  -0.001   0.000  -0.006   0.000  -0.006   0.000  -0.003   0.000
 21.155   0.000  35.631   0.000  -0.006   0.000  -0.005   0.000  -0.002   0.000  -0.010   0.000  -0.010   0.000  -0.004   0.000
 -0.003   0.000  -0.006   0.000  -3.539   0.000  -0.001   0.000  -0.000   0.000  -6.361   0.000  -0.001   0.000  -0.000   0.000
 -0.003   0.000  -0.005   0.000  -0.001   0.000  -3.540   0.000   0.000   0.000  -0.001   0.000  -6.361   0.000   0.001   0.000
 -0.001   0.000  -0.002   0.000  -0.000   0.000   0.000   0.000  -3.540   0.000  -0.000   0.000   0.001   0.000  -6.362   0.000
 -0.006   0.000  -0.010   0.000  -6.361   0.000  -0.001   0.000  -0.000   0.000 -11.410   0.000  -0.002   0.000  -0.000   0.000
 -0.006   0.000  -0.010   0.000  -0.001   0.000  -6.361   0.000   0.001   0.000  -0.002   0.000 -11.411   0.000   0.001   0.000
 -0.003   0.000  -0.004   0.000  -0.000   0.000   0.001   0.000  -6.362   0.000  -0.000   0.000   0.001   0.000 -11.413   0.000
 total augmentation occupancy for first ion, spin component:           1
  1.091  -0.112  -0.382  -0.339  -0.262   0.139   0.122   0.102
 -0.112   0.386   0.170   0.151   0.117  -0.047  -0.040  -0.038
 -0.382   0.170   1.757   1.057   0.124  -0.150  -0.306  -0.013
 -0.339   0.151   1.057   1.987  -0.460  -0.306  -0.230   0.160
 -0.262   0.117   0.124  -0.460   2.962  -0.013   0.161  -0.518
  0.139  -0.047  -0.150  -0.306  -0.013   0.090   0.029  -0.016
  0.122  -0.040  -0.306  -0.230   0.161   0.029   0.109  -0.039
  0.102  -0.038  -0.013   0.160  -0.518  -0.016  -0.039   0.147
 total augmentation occupancy for first ion, spin component:           2
 -0.000  -0.000  -0.000  -0.000  -0.000   0.000   0.000   0.000
 -0.000   0.000   0.000   0.000  -0.000  -0.000  -0.000   0.000
 -0.000   0.000  -0.000   0.000  -0.000   0.000  -0.000   0.000
 -0.000   0.000   0.000   0.000  -0.000  -0.000  -0.000   0.000
 -0.000  -0.000  -0.000  -0.000  -0.000   0.000   0.000   0.000
  0.000  -0.000   0.000  -0.000   0.000   0.000  -0.000  -0.000
  0.000  -0.000  -0.000  -0.000   0.000  -0.000   0.000  -0.000
  0.000   0.000   0.000   0.000   0.000  -0.000  -0.000  -0.000


------------------------ aborting loop because EDIFF is reached ----------------------------------------


    CHARGE:  cpu time    5.20: real time    5.20
    FORLOC:  cpu time    0.60: real time    0.60
    FORNL :  cpu time   19.50: real time   19.54
    STRESS:  cpu time   61.18: real time   61.27
    FORCOR:  cpu time    4.31: real time    4.33
    FORHAR:  cpu time    0.99: real time    1.00
    MIXING:  cpu time    0.20: real time    0.20
    OFIELD:  cpu time    0.00: real time    0.00

  FORCE on cell =-STRESS in cart. coord.  units (eV):
  Direction    XX          YY          ZZ          XY          YZ          ZX
  --------------------------------------------------------------------------------------
  Alpha Z    12.91688    12.91688    12.91688
  Ewald   11129.38888  5609.21540  6541.61653   375.78529 -1495.40402   891.69251
  Hartree 12501.11177  7820.61782  8800.46358    92.94666 -1399.51959   718.43958
  E(xc)    -688.93440  -691.48674  -692.11936     1.40872    -0.03712     0.62433
  Local  -26002.67639-15834.28683-17765.87816  -447.42412  2895.41745 -1611.63722
  n-local   -28.42091   -28.66568   -31.99303     3.51367    -1.15903    -1.02687
  augment    83.22830    84.10206    82.95063     1.72814     0.16959     0.71285
  Kinetic  2978.75426  3012.96094  3037.18923   -28.39144    -1.51065     1.07124
  Fock        0.00000     0.00000     0.00000     0.00000     0.00000     0.00000
  -------------------------------------------------------------------------------------
  Total     -14.63161   -14.62616   -14.85370    -0.43307    -2.04336    -0.12358
  in kB      -2.93030    -2.92921    -2.97478    -0.08673    -0.40923    -0.02475
  external pressure =       -2.94 kB  Pullay stress =        0.00 kB


 VOLUME and BASIS-vectors are now :
 -----------------------------------------------------------------------------
  energy-cutoff  :      700.00
  volume of cell :     8000.00
      direct lattice vectors                 reciprocal lattice vectors
    20.000000000  0.000000000  0.000000000     0.050000000  0.000000000  0.000000000
     0.000000000 20.000000000  0.000000000     0.000000000  0.050000000  0.000000000
     0.000000000  0.000000000 20.000000000     0.000000000  0.000000000  0.050000000

  length of vectors
    20.000000000 20.000000000 20.000000000     0.050000000  0.050000000  0.050000000


 FORCES acting on ions
    electron-ion (+dipol)            ewald-force                    non-local-force                 convergence-correction
 -----------------------------------------------------------------------------------------------
   -.832E+02 -.287E+03 -.276E+03   0.840E+02 0.289E+03 0.278E+03   -.812E+00 -.218E+01 -.217E+01   0.792E-06 0.261E-04 0.135E-04
   0.879E+02 -.897E+01 0.333E+03   -.885E+02 0.920E+01 -.335E+03   0.628E+00 -.226E+00 0.183E+01   0.871E-06 -.973E-05 -.522E-04
   0.679E+02 0.806E+02 0.318E+03   -.700E+02 -.828E+02 -.325E+03   0.212E+01 0.216E+01 0.636E+01   0.191E-04 -.428E-04 0.345E-04
   0.366E+01 -.317E+03 0.305E+02   -.400E+01 0.324E+03 -.304E+02   0.325E+00 -.677E+01 -.107E+00   0.194E-04 -.454E-04 0.166E-04
   0.363E+02 -.325E+03 0.105E+03   -.366E+02 0.327E+03 -.106E+03   0.352E+00 -.174E+01 0.737E+00   0.153E-04 0.223E-04 -.217E-04
   0.804E+02 -.208E+03 0.263E+03   -.809E+02 0.209E+03 -.265E+03   0.534E+00 -.110E+01 0.147E+01   -.520E-07 0.436E-04 -.715E-04
   0.747E+02 0.268E+03 -.218E+03   -.751E+02 -.269E+03 0.220E+03   0.437E+00 0.151E+01 -.141E+01   0.453E-05 -.367E-04 0.105E-04
   0.151E+03 0.256E+03 -.164E+03   -.155E+03 -.261E+03 0.168E+03   0.393E+01 0.479E+01 -.381E+01   0.238E-04 0.399E-04 -.450E-04
   -.226E+03 0.123E+03 -.137E+03   0.232E+03 -.125E+03 0.139E+03   -.528E+01 0.120E+01 -.278E+01   -.828E-04 0.224E-05 -.407E-04
   -.258E+03 0.144E+03 -.181E+03   0.259E+03 -.145E+03 0.183E+03   -.124E+01 0.131E+01 -.167E+01   0.254E-04 -.492E-04 0.221E-04
   -.338E+03 -.695E+02 -.609E+00   0.340E+03 0.700E+02 0.515E+00   -.196E+01 -.511E+00 0.766E-01   0.480E-04 0.256E-04 -.188E-04
   -.258E+03 -.192E+03 0.137E+03   0.260E+03 0.193E+03 -.138E+03   -.155E+01 -.118E+01 0.770E+00   0.218E-04 0.210E-04 -.252E-04
   -.182E+03 -.213E+03 0.187E+03   0.185E+03 0.218E+03 -.191E+03   -.341E+01 -.504E+01 0.408E+01   -.458E-04 -.492E-04 0.163E-04
   -.265E+03 0.643E+02 -.917E+02   0.270E+03 -.662E+02 0.946E+02   -.489E+01 0.195E+01 -.288E+01   -.688E-04 0.436E-04 -.751E-04
   -.315E+03 0.615E+02 -.112E+03   0.317E+03 -.614E+02 0.112E+03   -.235E+01 -.134E+00 -.372E+00   0.379E-04 0.384E-05 -.106E-04
   -.122E+03 0.232E+03 -.238E+03   0.123E+03 -.234E+03 0.240E+03   -.608E+00 0.138E+01 -.153E+01   0.193E-04 -.633E-04 0.357E-04
   0.272E+03 -.289E+02 -.103E+03   -.277E+03 0.301E+02 0.106E+03   0.535E+01 -.111E+01 -.214E+01   0.212E-04 -.372E-04 -.499E-04
   0.137E+03 -.217E+03 -.263E+03   -.142E+03 0.218E+03 0.265E+03   0.572E+01 -.928E+00 -.251E+01   0.130E-04 0.814E-04 0.671E-04
   0.323E+03 -.345E+02 -.116E+03   -.325E+03 0.341E+02 0.116E+03   0.244E+01 0.437E+00 -.115E+00   -.517E-04 -.242E-04 0.930E-05
   -.161E+03 -.230E+03 -.189E+03   0.167E+03 0.233E+03 0.190E+03   -.649E+01 -.159E+01 0.981E-02   0.205E-04 -.949E-05 -.548E-05
   0.234E+03 -.943E+02 -.156E+03   -.240E+03 0.944E+02 0.158E+03   0.590E+01 -.203E+00 -.198E+01   0.583E-04 -.978E-07 -.204E-04
   0.268E+03 -.123E+03 -.200E+03   -.271E+03 0.123E+03 0.201E+03   0.224E+01 -.473E+00 -.128E+01   -.178E-04 0.593E-04 0.550E-04
   0.148E+03 0.265E+03 0.192E+03   -.151E+03 -.270E+03 -.197E+03   0.315E+01 0.504E+01 0.426E+01   0.266E-04 -.531E-05 -.251E-04
   0.241E+03 0.223E+03 0.143E+03   -.243E+03 -.225E+03 -.144E+03   0.153E+01 0.128E+01 0.910E+00   -.362E-04 -.533E-04 -.424E-04
   0.337E+03 0.957E+02 0.332E+01   -.339E+03 -.964E+02 -.356E+01   0.214E+01 0.683E+00 0.243E+00   -.520E-04 -.561E-04 -.824E-05
   0.452E+02 0.806E+02 -.635E+02   -.488E+02 -.844E+02 0.664E+02   0.363E+01 0.381E+01 -.289E+01   -.409E-06 -.187E-04 0.107E-04
   -.418E+02 0.695E+02 -.756E+02   0.442E+02 -.731E+02 0.798E+02   -.243E+01 0.361E+01 -.418E+01   0.682E-05 -.202E-04 0.136E-04
   -.993E+02 0.279E+02 -.485E+02   0.105E+03 -.277E+02 0.497E+02   -.582E+01 -.255E+00 -.124E+01   0.127E-04 -.123E-04 0.638E-05
   -.407E+02 0.149E+03 0.160E+02   0.425E+02 -.157E+03 -.126E+02   -.179E+01 0.757E+01 -.335E+01   -.871E-05 0.203E-04 0.247E-05
   0.102E+03 -.222E+02 -.516E+02   -.108E+03 0.219E+02 0.529E+02   0.587E+01 0.445E+00 -.119E+01   -.216E-04 0.921E-05 0.147E-04
   0.800E+02 0.680E+02 -.316E+02   -.859E+02 -.682E+02 0.302E+02   0.586E+01 0.145E+00 0.133E+01   0.788E-05 0.237E-05 -.605E-05
   0.266E+02 -.663E+02 0.814E+02   -.282E+02 0.700E+02 -.859E+02   0.154E+01 -.371E+01 0.448E+01   -.321E-05 0.181E-04 -.272E-04
   0.592E+01 -.110E+03 0.901E+01   -.589E+01 0.116E+03 -.795E+01   -.352E-01 -.588E+01 -.107E+01   0.151E-05 0.226E-04 -.891E-05
   -.142E+02 -.101E+03 -.339E+02   0.157E+02 0.103E+03 0.392E+02   -.155E+01 -.209E+01 -.534E+01   0.200E-05 -.109E-04 0.657E-06
   -.101E+03 0.259E+02 0.116E+03   0.108E+03 -.236E+02 -.121E+03   -.652E+01 -.228E+01 0.485E+01   -.134E-04 0.741E-05 0.147E-04
   -.915E+02 0.386E+02 -.535E+02   0.948E+02 -.418E+02 0.572E+02   -.330E+01 0.324E+01 -.376E+01   0.142E-04 -.567E-05 0.286E-05
   -.661E+02 -.713E+02 0.547E+02   0.686E+02 0.756E+02 -.582E+02   -.245E+01 -.426E+01 0.345E+01   0.129E-04 0.786E-05 -.785E-05
   0.175E+02 0.711E+02 0.885E+02   -.175E+02 -.771E+02 -.892E+02   0.449E-01 0.597E+01 0.728E+00   0.349E-05 -.100E-04 0.627E-05
   0.418E+01 0.905E+02 0.774E+02   -.574E+00 -.935E+02 -.811E+02   -.361E+01 0.301E+01 0.376E+01   0.243E-05 0.588E-06 -.365E-05
   0.603E+02 0.771E+02 0.571E+02   -.626E+02 -.814E+02 -.607E+02   0.229E+01 0.428E+01 0.358E+01   -.111E-04 -.115E-04 -.784E-05
   -.105E+03 -.196E+02 -.447E+01   0.111E+03 0.206E+02 0.493E+01   -.593E+01 -.947E+00 -.465E+00   0.199E-04 0.747E-05 -.410E-05
   -.847E+02 -.634E+02 -.372E+02   0.907E+02 0.637E+02 0.360E+02   -.599E+01 -.172E+00 0.141E+01   -.203E-04 -.102E-04 -.330E-05
   0.286E+02 0.212E+02 0.104E+03   -.301E+02 -.236E+02 -.109E+03   0.152E+01 0.241E+01 0.526E+01   -.413E-05 -.364E-05 -.275E-04
   -.495E+02 -.826E+02 -.733E+02   0.526E+02 0.858E+02 0.759E+02   -.376E+01 -.391E+01 -.318E+01   -.119E-04 0.147E-05 0.135E-05
   0.947E+02 -.330E+02 -.542E+02   -.982E+02 0.361E+02 0.579E+02   0.347E+01 -.310E+01 -.371E+01   -.151E-04 -.202E-05 0.772E-05
   0.105E+03 0.253E+02 -.234E+01   -.111E+03 -.264E+02 0.264E+01   0.592E+01 0.109E+01 -.301E+00   -.189E-04 -.150E-04 0.143E-06
   -.229E+02 -.758E+02 0.740E+02   0.195E+02 0.790E+02 -.778E+02   0.343E+01 -.317E+01 0.380E+01   0.166E-05 -.939E-05 0.288E-05
   0.445E+02 -.661E+02 -.811E+02   -.470E+02 0.696E+02 0.855E+02   0.260E+01 -.344E+01 -.435E+01   -.284E-05 0.106E-04 0.939E-05
   0.309E+02 -.138E+03 0.223E+03   -.259E+02 0.126E+03 -.208E+03   -.494E+01 0.123E+02 -.148E+02   0.467E-04 -.852E-04 0.791E-04
   0.233E+03 0.164E+03 0.624E+02   -.212E+03 -.161E+03 -.643E+02   -.202E+02 -.311E+01 0.183E+01   0.116E-03 -.179E-04 -.592E-04
   -.411E+02 0.234E+03 -.159E+03   0.327E+02 -.223E+03 0.145E+03   0.849E+01 -.114E+02 0.133E+02   -.758E-04 0.688E-04 -.982E-04
   0.398E+02 -.194E+03 -.195E+03   -.316E+02 0.182E+03 0.180E+03   -.776E+01 0.113E+02 0.147E+02   0.141E-03 -.309E-04 -.434E-04
   -.253E+03 -.946E+02 0.686E+02   0.233E+03 0.921E+02 -.705E+02   0.202E+02 0.256E+01 0.190E+01   -.133E-03 -.150E-04 -.513E-04
   -.123E+03 0.404E+03 0.422E+03   0.833E+02 -.387E+03 -.425E+03   0.395E+02 -.170E+02 0.278E+01   -.551E-04 0.108E-03 0.793E-04
   -.746E+02 0.134E+03 0.232E+03   0.734E+02 -.131E+03 -.228E+03   0.107E+01 -.268E+01 -.355E+01   0.156E-03 -.727E-04 -.427E-04
 -----------------------------------------------------------------------------------------------
   -.375E+02 0.705E+01 -.977E+01   -.199E-12 0.853E-13 0.284E-13   0.375E+02 -.705E+01 0.978E+01   0.170E-03 -.179E-03 -.371E-03
 
 
 POSITION                                       TOTAL-FORCE (eV/Angst)
 -----------------------------------------------------------------------------------
      9.52399     12.52132     13.53212         0.046898     -0.237696     -0.260247
      8.75875     11.31222      6.55140        -0.006666      0.000186     -0.004662
      9.11624     10.48468      7.61029         0.003769     -0.021146      0.008003
      9.47459     12.30603      8.99730        -0.011240     -0.017625     -0.033173
      9.11904     13.19266      7.98704         0.008760      0.021037      0.041465
      8.75715     12.69444      6.73519         0.002163     -0.014018     -0.002675
     10.46158      6.59100     13.49490        -0.002956     -0.008440      0.015997
      9.94203      7.43809     12.52376        -0.003580      0.013759     -0.025801
     12.04547      8.38666     12.11872        -0.016381     -0.006632     -0.001973
     12.61928      7.55238     13.08448         0.009507      0.014318     -0.003345
     14.79299     10.57118     10.69264        -0.010193      0.013693     -0.016868
     14.01643     11.32257      9.80881         0.025725      0.001230      0.008277
     12.65158     11.07272      9.73048        -0.036516      0.011423     -0.014607
     12.79043      9.38554     11.34657        -0.000082     -0.000409     -0.009110
     14.16878      9.59490     11.46294        -0.005216     -0.007506      0.010216
     11.82695      6.64488     13.78060        -0.019857     -0.000530     -0.006714
      7.24231      9.77330     11.28348        -0.004790      0.011534      0.009135
      8.15819     12.44233     13.81164         0.721936     -0.010142     -0.199642
      5.86694      9.53439     11.36602        -0.012938      0.049902      0.055595
     10.05904     11.71816     12.53361        -0.530602      0.490017      0.696924
      7.96508     10.76003     12.08522        -0.330790     -0.077544      0.010760
      7.38092     11.55121     13.07965         0.135567      0.047644      0.002422
      7.45796      8.11597      9.64469         0.121477      0.050887      0.025586
      6.09730      7.83470      9.68863        -0.056116      0.031679      0.044901
      5.28440      8.55710     10.56432        -0.040499     -0.014510     -0.004376
      9.79795      5.90212     14.01497        -0.001434     -0.006462      0.001424
     12.26685      5.99367     14.53463         0.002156     -0.006288      0.003645
     13.68484      7.61538     13.29576        -0.000040     -0.003402      0.000936
     10.84507      7.24677      9.22597         0.010556     -0.031146     -0.006213
      6.31582     11.46138     13.28407         0.038086      0.063164      0.050454
      8.88327      7.42377     12.27295        -0.003690     -0.022437      0.000788
      8.47853     13.36665      5.92453        -0.001343      0.007063      0.000675
      9.12855     14.26265      8.19005         0.003596      0.003867     -0.005210
      9.76183     12.67176      9.98145         0.014444      0.027750     -0.024318
     11.38256      8.36174      8.29610         0.013510      0.000972     -0.022653
     14.75349      8.99278     12.15530         0.006847     -0.001361     -0.001410
     14.45552     12.09620      9.18096         0.003247      0.000730     -0.007564
      9.11405      9.40258      7.49376        -0.001746     -0.001793     -0.011006
      8.12287      7.57771      8.97051         0.000937      0.000094      0.001116
      5.68876      7.06123      9.04041        -0.007865     -0.008706     -0.004031
     15.86530     10.74076     10.77851         0.002797      0.000796     -0.000634
     11.11794     11.75383     12.28812        -0.007138      0.118271      0.128296
      8.48240     10.86572      5.59722        -0.004123     -0.000341      0.003405
     10.17895     13.19691     14.08003        -0.722614     -0.717047     -0.574211
      5.25320     10.11370     12.05309        -0.034729     -0.010937     -0.003130
      4.21445      8.36275     10.62101        -0.003130      0.002251      0.001597
     12.01813     11.63958      9.05085         0.006721     -0.001171     -0.012267
      7.70887     13.05934     14.58823         0.174623      0.061151      0.017803
      9.48490     10.95884      8.82805        -0.003885      0.015426     -0.072710
      8.03610      9.06122     10.42169         0.096426     -0.005860     -0.048329
     10.70414      8.32170     11.83465         0.077219     -0.115301      0.089233
      9.30896     10.85100     11.80824         0.403901      0.065786     -0.017526
     12.02768     10.13012     10.47953         0.106635      0.044081      0.013295
     10.61480      8.11252      8.84309        -0.048140      0.096795      0.118062
     10.01771      9.61740     10.38685        -0.109206      0.082943      0.034394
 -----------------------------------------------------------------------------------
    total drift:                                0.006904     -0.003229      0.003146


--------------------------------------------------------------------------------------------------------



  FREE ENERGIE OF THE ION-ELECTRON SYSTEM (eV)
  ---------------------------------------------------
  free  energy   TOTEN  =      -377.44758139 eV

  energy  without entropy=     -377.44758139  energy(sigma->0) =     -377.44758139
 


--------------------------------------------------------------------------------------------------------


    POTLOK:  cpu time    7.54: real time    7.58


--------------------------------------------------------------------------------------------------------


 writing wavefunctions
     LOOP+:  cpu time 1004.55: real time 1043.23
    4ORBIT:  cpu time    0.00: real time    0.00

 total amount of memory used by VASP on root node   877132. kBytes
========================================================================

   base      :      30000. kBytes
   nonlr-proj:      19361. kBytes
   fftplans  :     269516. kBytes
   grid      :     534988. kBytes
   one-center:       1710. kBytes
   wavefun   :      21557. kBytes
 
  
  
 General timing and accounting informations for this job:
 ========================================================
  
                  Total CPU time used (sec):     1257.752
                            User time (sec):     1110.644
                          System time (sec):      147.108
                         Elapsed time (sec):     1300.617
  
                   Maximum memory used (kb):     1490020.
                   Average memory used (kb):           0.
  
                          Minor page faults:      6844376
                          Major page faults:            4
                 Voluntary context switches:       271490
