<?xml version="1.0" encoding="ISO-8859-1"?>
<modeling>
 <generator>
  <i name="program" type="string">vasp </i>
  <i name="version" type="string">5.3.5  </i>
  <i name="subversion" type="string">31Mar14 (build Apr 08 2014 12:00:03) complex                          parallel </i>
  <i name="platform" type="string">NSC-NSCPATCH-BUILD02 </i>
  <i name="date" type="string">2017 03 15 </i>
  <i name="time" type="string">18:52:22 </i>
 </generator>
 <incar>
  <i type="string" name="SYSTEM"> c2_oh2_ruthenium_mol</i>
  <i type="int" name="ISTART">     0</i>
  <i type="string" name="PREC">accurate</i>
  <i type="int" name="IALGO">    38</i>
  <i type="logical" name="ADDGRID"> T  </i>
  <i type="int" name="ISPIN">     2</i>
  <i name="BMIX">      2.00000000</i>
  <i type="int" name="ICHARG">     2</i>
  <i name="EDIFF">      0.00001000</i>
  <i name="EDIFFG">     -0.01000000</i>
  <i name="ENCUT">    700.00000000</i>
  <i name="POTIM">      0.50000000</i>
  <i name="NUPDOWN">      0.00000000</i>
  <i name="NELECT">    166.00000000</i>
  <i type="string" name="LREAL"> Auto</i>
  <i name="TIME">      0.05000000</i>
  <i type="int" name="ISMEAR">     0</i>
  <i name="SIGMA">      0.01000000</i>
  <i type="int" name="ICORELEVEL">     2</i>
  <i type="int" name="CLNT">     1</i>
  <i type="int" name="CLN">     1</i>
  <i type="int" name="INCAR     ">     0</i>
  <i name="CLZ">      0.50000000</i>
 </incar>
 <kpoints>
  <generation param="Monkhorst-Pack">
   <v type="int" name="divisions">       1        1        1 </v>
   <v name="usershift">      0.00000000       0.00000000       0.00000000 </v>
   <v name="genvec1">      1.00000000       0.00000000       0.00000000 </v>
   <v name="genvec2">      0.00000000       1.00000000       0.00000000 </v>
   <v name="genvec3">      0.00000000       0.00000000       1.00000000 </v>
   <v name="shift">      0.00000000       0.00000000       0.00000000 </v>
  </generation>
  <varray name="kpointlist" >
   <v>       0.00000000       0.00000000       0.00000000 </v>
  </varray>
  <varray name="weights" >
   <v>       1.00000000 </v>
  </varray>
 </kpoints>
 <parameters>
  <separator name="general" >
   <i type="string" name="SYSTEM">c2_oh2_ruthenium_mol</i>
   <i type="logical" name="LCOMPAT"> F  </i>
  </separator>
  <separator name="electronic" >
   <i type="string" name="PREC">accura</i>
   <i name="ENMAX">    700.00000000</i>
   <i name="ENAUG">    946.76800000</i>
   <i name="EDIFF">      0.00001000</i>
   <i type="int" name="IALGO">    38</i>
   <i type="int" name="IWAVPR">    10</i>
   <i type="int" name="NBANDS">   128</i>
   <i name="NELECT">    166.00000000</i>
   <i type="int" name="TURBO">     0</i>
   <i type="int" name="IRESTART">     0</i>
   <i type="int" name="NREBOOT">     0</i>
   <i type="int" name="NMIN">     0</i>
   <i name="EREF">      0.00000000</i>
   <separator name="electronic smearing" >
    <i type="int" name="ISMEAR">     0</i>
    <i name="SIGMA">      0.01000000</i>
    <i name="KSPACING">      0.50000000</i>
    <i type="logical" name="KGAMMA"> T  </i>
   </separator>
   <separator name="electronic projectors" >
    <i type="logical" name="LREAL"> T  </i>
    <v name="ROPT">     -0.00025000     -0.00025000     -0.00025000     -0.00025000     -0.00025000     -0.00025000</v>
    <i type="int" name="LMAXPAW">  -100</i>
    <i type="int" name="LMAXMIX">     2</i>
    <i type="logical" name="NLSPLINE"> F  </i>
   </separator>
   <separator name="electronic startup" >
    <i type="int" name="ISTART">     0</i>
    <i type="int" name="ICHARG">     2</i>
    <i type="int" name="INIWAV">     1</i>
   </separator>
   <separator name="electronic spin" >
    <i type="int" name="ISPIN">     2</i>
    <i type="logical" name="LNONCOLLINEAR"> F  </i>
    <v name="MAGMOM">      0.00000000      0.00000000      0.00000000      0.00000000      0.00000000      0.00000000      0.00000000      0.00000000      0.00000000      0.00000000      0.00000000      0.00000000      0.00000000      0.00000000      0.00000000      0.00000000      0.00000000      0.00000000      0.00000000      0.00000000
      0.00000000      0.00000000      0.00000000      0.00000000      0.00000000      0.00000000      0.00000000      0.00000000      0.00000000      0.00000000      0.00000000      0.00000000      0.00000000      0.00000000      0.00000000      0.00000000      0.00000000      0.00000000      0.00000000      0.00000000
      0.00000000      0.00000000      0.00000000      0.00000000      0.00000000      0.00000000      0.00000000      0.00000000      0.00000000      0.00000000      0.00000000      0.00000000      0.00000000      0.00000000      0.00000000</v>
    <i name="NUPDOWN">      0.00000000</i>
    <i type="logical" name="LSORBIT"> F  </i>
    <v name="SAXIS">      0.00000000      0.00000000      1.00000000</v>
    <i type="logical" name="LSPIRAL"> F  </i>
    <v name="QSPIRAL">      0.00000000      0.00000000      0.00000000</v>
    <i type="logical" name="LZEROZ"> F  </i>
   </separator>
   <separator name="electronic exchange-correlation" >
    <i type="logical" name="LASPH"> F  </i>
    <i type="logical" name="LMETAGGA"> F  </i>
   </separator>
   <separator name="electronic convergence" >
    <i type="int" name="NELM">    60</i>
    <i type="int" name="NELMDL">    -5</i>
    <i type="int" name="NELMIN">     2</i>
    <i name="ENINI">    700.00000000</i>
    <separator name="electronic convergence detail" >
     <i type="logical" name="LDIAG"> T  </i>
     <i type="logical" name="LSUBROT"> F  </i>
     <i name="WEIMIN">      0.00000000</i>
     <i name="EBREAK">      0.00000002</i>
     <i name="DEPER">      0.30000000</i>
     <i type="int" name="NRMM">     4</i>
     <i name="TIME">      0.05000000</i>
    </separator>
   </separator>
   <separator name="electronic mixer" >
    <i name="AMIX">      0.40000000</i>
    <i name="BMIX">      2.00000000</i>
    <i name="AMIN">      0.10000000</i>
    <i name="AMIX_MAG">      1.60000000</i>
    <i name="BMIX_MAG">      2.00000000</i>
    <separator name="electronic mixer details" >
     <i type="int" name="IMIX">     4</i>
     <i type="int" name="MAXMIX">   -45</i>
     <i name="WC">    100.00000000</i>
     <i type="int" name="INIMIX">     1</i>
     <i type="int" name="MIXPRE">     1</i>
     <i type="int" name="MREMOVE">     5</i>
    </separator>
   </separator>
   <separator name="electronic dipolcorrection" >
    <i type="logical" name="LDIPOL"> F  </i>
    <i type="logical" name="LMONO"> F  </i>
    <i type="int" name="IDIPOL">     0</i>
    <i name="EPSILON">      1.00000000</i>
    <v name="DIPOL">   -100.00000000   -100.00000000   -100.00000000</v>
    <i name="EFIELD">      0.00000000</i>
   </separator>
  </separator>
  <separator name="grids" >
   <i type="int" name="NGX">   180</i>
   <i type="int" name="NGY">   180</i>
   <i type="int" name="NGZ">   180</i>
   <i type="int" name="NGXF">   360</i>
   <i type="int" name="NGYF">   360</i>
   <i type="int" name="NGZF">   360</i>
   <i type="logical" name="ADDGRID"> T  </i>
  </separator>
  <separator name="ionic" >
   <i type="int" name="NSW">     0</i>
   <i type="int" name="IBRION">    -1</i>
   <i type="int" name="ISIF">     2</i>
   <i name="PSTRESS">      0.00000000</i>
   <i name="EDIFFG">     -0.01000000</i>
   <i type="int" name="NFREE">     0</i>
   <i name="POTIM">      0.50000000</i>
   <i name="SMASS">     -3.00000000</i>
   <i name="SCALEE">      1.00000000</i>
  </separator>
  <separator name="ionic md" >
   <i name="TEBEG">      0.00010000</i>
   <i name="TEEND">      0.00010000</i>
   <i type="int" name="NBLOCK">     1</i>
   <i type="int" name="KBLOCK">     1</i>
   <i type="int" name="NPACO">   256</i>
   <i name="APACO">     16.00000000</i>
  </separator>
  <separator name="symmetry" >
   <i type="int" name="ISYM">     2</i>
   <i name="SYMPREC">      0.00001000</i>
  </separator>
  <separator name="dos" >
   <i type="logical" name="LORBIT"> F  </i>
   <v name="RWIGS">     -1.00000000     -1.00000000     -1.00000000     -1.00000000     -1.00000000     -1.00000000</v>
   <i type="int" name="NEDOS">   301</i>
   <i name="EMIN">     10.00000000</i>
   <i name="EMAX">    -10.00000000</i>
   <i name="EFERMI">      0.00000000</i>
  </separator>
  <separator name="writing" >
   <i type="int" name="NWRITE">     2</i>
   <i type="logical" name="LWAVE"> T  </i>
   <i type="logical" name="LCHARG"> T  </i>
   <i type="logical" name="LPARD"> F  </i>
   <i type="logical" name="LVTOT"> F  </i>
   <i type="logical" name="LVHAR"> F  </i>
   <i type="logical" name="LELF"> F  </i>
   <i type="logical" name="LOPTICS"> F  </i>
   <v name="STM">      0.00000000      0.00000000      0.00000000      0.00000000      0.00000000      0.00000000      0.00000000</v>
  </separator>
  <separator name="performance" >
   <i type="int" name="NPAR">    64</i>
   <i type="int" name="NSIM">     4</i>
   <i type="int" name="NBLK">    -1</i>
   <i type="logical" name="LPLANE"> T  </i>
   <i type="logical" name="LSCALAPACK"> T  </i>
   <i type="logical" name="LSCAAWARE"> F  </i>
   <i type="logical" name="LSCALU"> F  </i>
   <i type="logical" name="LASYNC"> F  </i>
   <i type="logical" name="LORBITALREAL"> F  </i>
  </separator>
  <separator name="miscellaneous" >
   <i type="int" name="IDIOT">     3</i>
   <i type="logical" name="LMUSIC"> F  </i>
   <v name="POMASS">     12.01100000     12.01100000      1.00000000     14.00100000     16.00000000    101.07000000</v>
   <v name="DARWINR">      0.00000000      0.00000000      0.00000000      0.00000000      0.00000000      0.00000000</v>
   <v name="DARWINV">      1.00000000      1.00000000      1.00000000      1.00000000      1.00000000      1.00000000</v>
   <i type="logical" name="LCORR"> T  </i>
  </separator>
  <i type="logical" name="GGA_COMPAT"> T  </i>
  <i type="logical" name="LBERRY"> F  </i>
  <i type="int" name="ICORELEVEL">     2</i>
  <i type="int" name="CLNT">     1</i>
  <i type="int" name="CLN">     1</i>
  <i type="int" name="CLL">     0</i>
  <i name="CLZ">      0.50000000</i>
  <i type="logical" name="LDAU"> F  </i>
  <i type="int" name="I_CONSTRAINED_M">     0</i>
  <separator name="electronic exchange-correlation" >
   <i type="string" name="GGA">--</i>
   <i type="int" name="VOSKOWN">     0</i>
   <i type="logical" name="LHFCALC"> F  </i>
   <i type="string" name="PRECFOCK"></i>
   <i type="logical" name="LSYMGRAD"> F  </i>
   <i type="logical" name="LHFONE"> F  </i>
   <i type="logical" name="LRHFCALC"> F  </i>
   <i type="logical" name="LTHOMAS"> F  </i>
   <i type="logical" name="LMODELHF"> F  </i>
   <i name="ENCUT4O">     -1.00000000</i>
   <i type="int" name="EXXOEP">     0</i>
   <i type="int" name="FOURORBIT">     0</i>
   <i name="AEXX">      0.00000000</i>
   <i name="HFALPHA">      0.00000000</i>
   <i name="MCALPHA">      0.00000000</i>
   <i name="ALDAX">      1.00000000</i>
   <i name="AGGAX">      1.00000000</i>
   <i name="ALDAC">      1.00000000</i>
   <i name="AGGAC">      1.00000000</i>
   <i type="int" name="NKREDX">     1</i>
   <i type="int" name="NKREDY">     1</i>
   <i type="int" name="NKREDZ">     1</i>
   <i type="logical" name="SHIFTRED"> F  </i>
   <i type="logical" name="ODDONLY"> F  </i>
   <i type="logical" name="EVENONLY"> F  </i>
   <i type="int" name="LMAXFOCK">     0</i>
   <i type="int" name="NMAXFOCKAE">     0</i>
   <i type="logical" name="LFOCKAEDFT"> F  </i>
   <i name="HFSCREEN">      0.00000000</i>
   <i name="HFSCREENC">      0.00000000</i>
   <i type="int" name="NBANDSGWLOW">     0</i>
  </separator>
  <separator name="vdW DFT" >
   <i type="logical" name="LUSE_VDW"> F  </i>
   <i name="Zab_VDW">     -0.84910000</i>
   <i name="PARAM1">      0.12340000</i>
   <i name="PARAM2">      1.00000000</i>
   <i name="PARAM3">      0.00000000</i>
  </separator>
  <separator name="model GW" >
   <i type="int" name="MODEL_GW">     0</i>
   <i name="MODEL_EPS0">     87.27272727</i>
   <i name="MODEL_ALPHA">      1.00000000</i>
  </separator>
  <separator name="linear response parameters" >
   <i type="logical" name="LEPSILON"> F  </i>
   <i type="logical" name="LRPA"> F  </i>
   <i type="logical" name="LNABLA"> F  </i>
   <i type="logical" name="LVEL"> F  </i>
   <i type="int" name="KINTER">     0</i>
   <i name="CSHIFT">      0.10000000</i>
   <i name="OMEGAMAX">     -1.00000000</i>
   <i name="DEG_THRESHOLD">      0.00200000</i>
  </separator>
  <separator name="orbital magnetization" >
   <i type="logical" name="NUCIND"> F  </i>
   <v name="MAGPOS">      0.00000000      0.00000000      0.00000000</v>
   <i type="logical" name="LNICSALL"> T  </i>
   <i type="logical" name="ORBITALMAG"> F  </i>
   <i type="logical" name="LMAGBLOCH"> F  </i>
   <i type="logical" name="LCHIMAG"> F  </i>
   <i type="logical" name="LGAUGE"> T  </i>
   <i type="int" name="MAGATOM">     0</i>
   <v name="MAGDIPOL">      0.00000000      0.00000000      0.00000000</v>
   <v name="AVECCONST">      0.00000000      0.00000000      0.00000000</v>
  </separator>
  <separator name="response functions" >
   <i type="logical" name="LADDER"> F  </i>
   <i type="logical" name="LFXC"> F  </i>
   <i type="logical" name="LHARTREE"> T  </i>
   <i type="int" name="IBSE">     0</i>
   <i type="logical" name="LTCTE"> F  </i>
   <i type="logical" name="LTETE"> F  </i>
   <i type="logical" name="LTRIPLET"> F  </i>
   <i type="logical" name="LFXCEPS"> F  </i>
   <i type="logical" name="LFXHEG"> F  </i>
   <i type="logical" name="L2ORDER"> F  </i>
   <i type="logical" name="LUSEW"> F  </i>
   <i name="ENCUTGW">     -2.00000000</i>
   <i name="ENCUTGWSOFT">     -2.00000000</i>
   <i name="ENCUTLF">     -1.00000000</i>
   <i type="int" name="LMAXMP2">    -1</i>
   <i name="SCISSOR">      0.00000000</i>
   <i type="int" name="NOMEGA">     0</i>
   <i type="int" name="NOMEGAR">     0</i>
   <i type="int" name="NBANDSGW">    -1</i>
   <i type="int" name="NBANDSO">    -1</i>
   <i type="int" name="NBANDSV">    -1</i>
   <i type="int" name="NELM">     1</i>
   <i type="int" name="DIM">     3</i>
   <i type="int" name="ANTIRES">     0</i>
   <i name="OMEGAMAX">    -30.00000000</i>
   <i name="OMEGAMIN">    -30.00000000</i>
   <i name="OMEGATL">   -200.00000000</i>
   <i type="int" name="OMEGAGRID">     0</i>
   <i name="CSHIFT">     -0.10000000</i>
   <i type="logical" name="SELFENERGY"> F  </i>
   <i type="logical" name="LSPECTRAL"> F  </i>
   <i type="logical" name="ODDONLYGW"> F  </i>
   <i type="logical" name="EVENONLYGW"> F  </i>
   <i type="int" name="NKREDLFX">     1</i>
   <i type="int" name="NKREDLFY">     1</i>
   <i type="int" name="NKREDLFZ">     1</i>
   <i type="int" name="MAXMEM">  1800</i>
   <i type="int" name="TELESCOPE">     0</i>
   <i type="int" name="TAUPAR">     1</i>
  </separator>
  <separator name="External order field" >
   <i name="OFIELD_KAPPA">      0.00000000</i>
   <v name="OFIELD_K">      0.00000000      0.00000000      0.00000000</v>
   <i name="OFIELD_Q6_NEAR">      0.00000000</i>
   <i name="OFIELD_Q6_FAR">      0.00000000</i>
   <i name="OFIELD_A">      0.00000000</i>
  </separator>
 </parameters>
 <atominfo>
  <atoms>      55 </atoms>
  <types>       6 </types>
  <array name="atoms" >
   <dimension dim="1">ion</dimension>
   <field type="string">element</field>
   <field type="int">atomtype</field>
   <set>
    <rc><c>C </c><c>   1</c></rc>
    <rc><c>C </c><c>   2</c></rc>
    <rc><c>C </c><c>   2</c></rc>
    <rc><c>C </c><c>   2</c></rc>
    <rc><c>C </c><c>   2</c></rc>
    <rc><c>C </c><c>   2</c></rc>
    <rc><c>C </c><c>   2</c></rc>
    <rc><c>C </c><c>   2</c></rc>
    <rc><c>C </c><c>   2</c></rc>
    <rc><c>C </c><c>   2</c></rc>
    <rc><c>C </c><c>   2</c></rc>
    <rc><c>C </c><c>   2</c></rc>
    <rc><c>C </c><c>   2</c></rc>
    <rc><c>C </c><c>   2</c></rc>
    <rc><c>C </c><c>   2</c></rc>
    <rc><c>C </c><c>   2</c></rc>
    <rc><c>C </c><c>   2</c></rc>
    <rc><c>C </c><c>   2</c></rc>
    <rc><c>C </c><c>   2</c></rc>
    <rc><c>C </c><c>   2</c></rc>
    <rc><c>C </c><c>   2</c></rc>
    <rc><c>C </c><c>   2</c></rc>
    <rc><c>C </c><c>   2</c></rc>
    <rc><c>C </c><c>   2</c></rc>
    <rc><c>C </c><c>   2</c></rc>
    <rc><c>H </c><c>   3</c></rc>
    <rc><c>H </c><c>   3</c></rc>
    <rc><c>H </c><c>   3</c></rc>
    <rc><c>H </c><c>   3</c></rc>
    <rc><c>H </c><c>   3</c></rc>
    <rc><c>H </c><c>   3</c></rc>
    <rc><c>H </c><c>   3</c></rc>
    <rc><c>H </c><c>   3</c></rc>
    <rc><c>H </c><c>   3</c></rc>
    <rc><c>H </c><c>   3</c></rc>
    <rc><c>H </c><c>   3</c></rc>
    <rc><c>H </c><c>   3</c></rc>
    <rc><c>H </c><c>   3</c></rc>
    <rc><c>H </c><c>   3</c></rc>
    <rc><c>H </c><c>   3</c></rc>
    <rc><c>H </c><c>   3</c></rc>
    <rc><c>H </c><c>   3</c></rc>
    <rc><c>H </c><c>   3</c></rc>
    <rc><c>H </c><c>   3</c></rc>
    <rc><c>H </c><c>   3</c></rc>
    <rc><c>H </c><c>   3</c></rc>
    <rc><c>H </c><c>   3</c></rc>
    <rc><c>H </c><c>   3</c></rc>
    <rc><c>N </c><c>   4</c></rc>
    <rc><c>N </c><c>   4</c></rc>
    <rc><c>N </c><c>   4</c></rc>
    <rc><c>N </c><c>   4</c></rc>
    <rc><c>N </c><c>   4</c></rc>
    <rc><c>O </c><c>   5</c></rc>
    <rc><c>Ru</c><c>   6</c></rc>
   </set>
  </array>
  <array name="atomtypes" >
   <dimension dim="1">type</dimension>
   <field type="int">atomspertype</field>
   <field type="string">element</field>
   <field>mass</field>
   <field>valence</field>
   <field type="string">pseudopotential</field>
   <set>
    <rc><c>   1</c><c>C </c><c>     12.01100000</c><c>      4.50000000</c><c>  PAW_PBE C_h 06Feb2004                 </c></rc>
    <rc><c>  24</c><c>C </c><c>     12.01100000</c><c>      4.00000000</c><c>  PAW_PBE C_h 06Feb2004                 </c></rc>
    <rc><c>  23</c><c>H </c><c>      1.00000000</c><c>      1.00000000</c><c>  PAW_PBE H 15Jun2001                   </c></rc>
    <rc><c>   5</c><c>N </c><c>     14.00100000</c><c>      5.00000000</c><c>  PAW_PBE N_h 06Feb2004                 </c></rc>
    <rc><c>   1</c><c>O </c><c>     16.00000000</c><c>      6.00000000</c><c>  PAW_PBE O_h 06Feb2004                 </c></rc>
    <rc><c>   1</c><c>Ru</c><c>    101.07000000</c><c>     14.00000000</c><c>  PAW_PBE Ru_pv 28Jan2005               </c></rc>
   </set>
  </array>
 </atominfo>
 <structure name="initialpos" >
  <crystal>
   <varray name="basis" >
    <v>      20.00000000       0.00000000       0.00000000 </v>
    <v>       0.00000000      20.00000000       0.00000000 </v>
    <v>       0.00000000       0.00000000      20.00000000 </v>
   </varray>
   <i name="volume">   8000.00000000 </i>
   <varray name="rec_basis" >
    <v>       0.05000000       0.00000000       0.00000000 </v>
    <v>       0.00000000       0.05000000       0.00000000 </v>
    <v>       0.00000000       0.00000000       0.05000000 </v>
   </varray>
  </crystal>
  <varray name="positions" >
   <v>       0.47619960       0.62606623       0.67660612 </v>
   <v>       0.43793752       0.56561110       0.32757008 </v>
   <v>       0.45581208       0.52423376       0.38051465 </v>
   <v>       0.47372925       0.61530131       0.44986522 </v>
   <v>       0.45595175       0.65963312       0.39935201 </v>
   <v>       0.43785737       0.63472201       0.33675972 </v>
   <v>       0.52307882       0.32955005       0.67474498 </v>
   <v>       0.49710163       0.37190466       0.62618823 </v>
   <v>       0.60227374       0.41933300       0.60593616 </v>
   <v>       0.63096398       0.37761922       0.65422416 </v>
   <v>       0.73964927       0.52855915       0.53463181 </v>
   <v>       0.70082162       0.56612858       0.49044049 </v>
   <v>       0.63257913       0.55363620       0.48652424 </v>
   <v>       0.63952130       0.46927713       0.56732841 </v>
   <v>       0.70843899       0.47974495       0.57314689 </v>
   <v>       0.59134754       0.33224398       0.68903016 </v>
   <v>       0.36211554       0.48866484       0.56417415 </v>
   <v>       0.40790931       0.62211625       0.69058213 </v>
   <v>       0.29334713       0.47671938       0.56830116 </v>
   <v>       0.50295190       0.58590820       0.62668073 </v>
   <v>       0.39825425       0.53800137       0.60426081 </v>
   <v>       0.36904589       0.57756069       0.65398228 </v>
   <v>       0.37289802       0.40579857       0.48223443 </v>
   <v>       0.30486503       0.39173492       0.48443166 </v>
   <v>       0.26422003       0.42785518       0.52821594 </v>
   <v>       0.48989745       0.29510618       0.70074864 </v>
   <v>       0.61334240       0.29968355       0.72673159 </v>
   <v>       0.68424189       0.38076917       0.66478776 </v>
   <v>       0.54225374       0.36233861       0.46129841 </v>
   <v>       0.31579090       0.57306911       0.66420366 </v>
   <v>       0.44416348       0.37118871       0.61364770 </v>
   <v>       0.42392665       0.66833230       0.29622671 </v>
   <v>       0.45642762       0.71313270       0.40950260 </v>
   <v>       0.48809132       0.63358802       0.49907234 </v>
   <v>       0.56912778       0.41808713       0.41480476 </v>
   <v>       0.73767440       0.44963919       0.60776512 </v>
   <v>       0.72277620       0.60481012       0.45904817 </v>
   <v>       0.45570253       0.47012894       0.37468790 </v>
   <v>       0.40614333       0.37888556       0.44852541 </v>
   <v>       0.28443799       0.35306162       0.45202062 </v>
   <v>       0.79326502       0.53703787       0.53892527 </v>
   <v>       0.55589708       0.58769132       0.61440612 </v>
   <v>       0.42412006       0.54328620       0.27986105 </v>
   <v>       0.50894741       0.65984570       0.70400156 </v>
   <v>       0.26265982       0.50568523       0.60265428 </v>
   <v>       0.21072272       0.41813760       0.53105039 </v>
   <v>       0.60090654       0.58197914       0.45254259 </v>
   <v>       0.38544357       0.65296704       0.72941133 </v>
   <v>       0.47424490       0.54794204       0.44140236 </v>
   <v>       0.40180479       0.45306079       0.52108436 </v>
   <v>       0.53520702       0.41608490       0.59173240 </v>
   <v>       0.46544808       0.54254992       0.59041194 </v>
   <v>       0.60138410       0.50650621       0.52397638 </v>
   <v>       0.53073984       0.40562607       0.44215451 </v>
   <v>       0.50088568       0.48087016       0.51934246 </v>
  </varray>
  <varray name="selective"  type="logical" >
   <v type="logical" >  T  T  T </v>
   <v type="logical" >  T  T  T </v>
   <v type="logical" >  T  T  T </v>
   <v type="logical" >  T  T  T </v>
   <v type="logical" >  T  T  T </v>
   <v type="logical" >  T  T  T </v>
   <v type="logical" >  T  T  T </v>
   <v type="logical" >  T  T  T </v>
   <v type="logical" >  T  T  T </v>
   <v type="logical" >  T  T  T </v>
   <v type="logical" >  T  T  T </v>
   <v type="logical" >  T  T  T </v>
   <v type="logical" >  T  T  T </v>
   <v type="logical" >  T  T  T </v>
   <v type="logical" >  T  T  T </v>
   <v type="logical" >  T  T  T </v>
   <v type="logical" >  T  T  T </v>
   <v type="logical" >  T  T  T </v>
   <v type="logical" >  T  T  T </v>
   <v type="logical" >  T  T  T </v>
   <v type="logical" >  T  T  T </v>
   <v type="logical" >  T  T  T </v>
   <v type="logical" >  T  T  T </v>
   <v type="logical" >  T  T  T </v>
   <v type="logical" >  T  T  T </v>
   <v type="logical" >  T  T  T </v>
   <v type="logical" >  T  T  T </v>
   <v type="logical" >  T  T  T </v>
   <v type="logical" >  T  T  T </v>
   <v type="logical" >  T  T  T </v>
   <v type="logical" >  T  T  T </v>
   <v type="logical" >  T  T  T </v>
   <v type="logical" >  T  T  T </v>
   <v type="logical" >  T  T  T </v>
   <v type="logical" >  T  T  T </v>
   <v type="logical" >  T  T  T </v>
   <v type="logical" >  T  T  T </v>
   <v type="logical" >  T  T  T </v>
   <v type="logical" >  T  T  T </v>
   <v type="logical" >  T  T  T </v>
   <v type="logical" >  T  T  T </v>
   <v type="logical" >  T  T  T </v>
   <v type="logical" >  T  T  T </v>
   <v type="logical" >  T  T  T </v>
   <v type="logical" >  T  T  T </v>
   <v type="logical" >  T  T  T </v>
   <v type="logical" >  T  T  T </v>
   <v type="logical" >  T  T  T </v>
   <v type="logical" >  T  T  T </v>
   <v type="logical" >  T  T  T </v>
   <v type="logical" >  T  T  T </v>
   <v type="logical" >  T  T  T </v>
   <v type="logical" >  T  T  T </v>
   <v type="logical" >  T  T  T </v>
   <v type="logical" >  T  T  T </v>
  </varray>
  <nose>
   <v>      -3.00000000       0.00000000       0.00010000       0.00010000 </v>
  </nose>
 </structure>
 <calculation>
  <scstep>
   <time name="dav">   14.77   15.74</time>
   <time name="total">   22.31   23.32</time>
   <energy>
    <i name="alphaZ">     12.91687988 </i>
    <i name="ewald">  23280.23526213 </i>
    <i name="hartreedc"> -28882.52963549 </i>
    <i name="XCdc">    400.93319946 </i>
    <i name="pawpsdc">   5890.45591622 </i>
    <i name="pawaedc">  -5710.10246236 </i>
    <i name="eentropy">     -0.00000279 </i>
    <i name="bandstr">  -1676.38521329 </i>
    <i name="atom">   7593.39991119 </i>
    <i name="e_fr_energy">    908.92385496 </i>
    <i name="e_wo_entrp">    908.92385775 </i>
    <i name="e_0_energy">    908.92385635 </i>
   </energy>
  </scstep>
  <scstep>
   <time name="dav">   19.11   20.28</time>
   <time name="total">   19.12   20.29</time>
   <energy>
    <i name="e_fr_energy">    -69.18040057 </i>
    <i name="e_wo_entrp">    -69.18040057 </i>
    <i name="e_0_energy">    -69.18040057 </i>
   </energy>
  </scstep>
  <scstep>
   <time name="dav">   14.95   15.87</time>
   <time name="total">   14.97   15.89</time>
   <energy>
    <i name="e_fr_energy">   -391.88737487 </i>
    <i name="e_wo_entrp">   -391.88737487 </i>
    <i name="e_0_energy">   -391.88737487 </i>
   </energy>
  </scstep>
  <scstep>
   <time name="dav">   12.69   13.40</time>
   <time name="total">   12.70   13.41</time>
   <energy>
    <i name="e_fr_energy">   -412.13550608 </i>
    <i name="e_wo_entrp">   -412.13550608 </i>
    <i name="e_0_energy">   -412.13550608 </i>
   </energy>
  </scstep>
  <scstep>
   <time name="dav">   17.00   18.03</time>
   <time name="total">   22.39   23.44</time>
   <energy>
    <i name="e_fr_energy">   -412.44605076 </i>
    <i name="e_wo_entrp">   -412.44605076 </i>
    <i name="e_0_energy">   -412.44605076 </i>
   </energy>
  </scstep>
  <scstep>
   <time name="dav">   10.78   11.44</time>
   <time name="total">   23.58   24.29</time>
   <energy>
    <i name="e_fr_energy">   -393.42038030 </i>
    <i name="e_wo_entrp">   -393.42038030 </i>
    <i name="e_0_energy">   -393.42038030 </i>
   </energy>
  </scstep>
  <scstep>
   <time name="dav">   15.04   16.35</time>
   <time name="total">   27.75   29.11</time>
   <energy>
    <i name="e_fr_energy">   -382.95636838 </i>
    <i name="e_wo_entrp">   -382.95636838 </i>
    <i name="e_0_energy">   -382.95636838 </i>
   </energy>
  </scstep>
  <scstep>
   <time name="dav">   15.12   16.45</time>
   <time name="total">   27.96   29.35</time>
   <energy>
    <i name="e_fr_energy">   -378.83427725 </i>
    <i name="e_wo_entrp">   -378.83427725 </i>
    <i name="e_0_energy">   -378.83427725 </i>
   </energy>
  </scstep>
  <scstep>
   <time name="dav">   15.01   16.34</time>
   <time name="total">   27.73   29.12</time>
   <energy>
    <i name="e_fr_energy">   -377.68949188 </i>
    <i name="e_wo_entrp">   -377.68949188 </i>
    <i name="e_0_energy">   -377.68949188 </i>
   </energy>
  </scstep>
  <scstep>
   <time name="dav">   13.86   14.80</time>
   <time name="total">   26.75   27.77</time>
   <energy>
    <i name="e_fr_energy">   -377.65317539 </i>
    <i name="e_wo_entrp">   -377.65317539 </i>
    <i name="e_0_energy">   -377.65317539 </i>
   </energy>
  </scstep>
  <scstep>
   <time name="dav">   15.00   16.33</time>
   <time name="total">   27.66   29.03</time>
   <energy>
    <i name="e_fr_energy">   -377.51746597 </i>
    <i name="e_wo_entrp">   -377.51746597 </i>
    <i name="e_0_energy">   -377.51746597 </i>
   </energy>
  </scstep>
  <scstep>
   <time name="dav">   15.03   16.32</time>
   <time name="total">   27.89   29.38</time>
   <energy>
    <i name="e_fr_energy">   -377.44048969 </i>
    <i name="e_wo_entrp">   -377.44048969 </i>
    <i name="e_0_energy">   -377.44048969 </i>
   </energy>
  </scstep>
  <scstep>
   <time name="dav">   15.02   16.34</time>
   <time name="total">   27.88   29.28</time>
   <energy>
    <i name="e_fr_energy">   -377.42223506 </i>
    <i name="e_wo_entrp">   -377.42223506 </i>
    <i name="e_0_energy">   -377.42223506 </i>
   </energy>
  </scstep>
  <scstep>
   <time name="dav">   15.03   16.30</time>
   <time name="total">   27.79   29.21</time>
   <energy>
    <i name="e_fr_energy">   -377.41460395 </i>
    <i name="e_wo_entrp">   -377.41460395 </i>
    <i name="e_0_energy">   -377.41460395 </i>
   </energy>
  </scstep>
  <scstep>
   <time name="dav">   15.05   16.32</time>
   <time name="total">   27.89   29.21</time>
   <energy>
    <i name="e_fr_energy">   -377.41757755 </i>
    <i name="e_wo_entrp">   -377.41757755 </i>
    <i name="e_0_energy">   -377.41757755 </i>
   </energy>
  </scstep>
  <scstep>
   <time name="dav">   15.11   16.38</time>
   <time name="total">   27.91   29.23</time>
   <energy>
    <i name="e_fr_energy">   -377.42722838 </i>
    <i name="e_wo_entrp">   -377.42722838 </i>
    <i name="e_0_energy">   -377.42722838 </i>
   </energy>
  </scstep>
  <scstep>
   <time name="dav">   15.04   16.35</time>
   <time name="total">   27.80   29.13</time>
   <energy>
    <i name="e_fr_energy">   -377.43410154 </i>
    <i name="e_wo_entrp">   -377.43410154 </i>
    <i name="e_0_energy">   -377.43410154 </i>
   </energy>
  </scstep>
  <scstep>
   <time name="dav">   15.22   16.54</time>
   <time name="total">   27.97   29.32</time>
   <energy>
    <i name="e_fr_energy">   -377.43899030 </i>
    <i name="e_wo_entrp">   -377.43899030 </i>
    <i name="e_0_energy">   -377.43899030 </i>
   </energy>
  </scstep>
  <scstep>
   <time name="dav">   15.04   16.31</time>
   <time name="total">   27.83   29.12</time>
   <energy>
    <i name="e_fr_energy">   -377.44191067 </i>
    <i name="e_wo_entrp">   -377.44191067 </i>
    <i name="e_0_energy">   -377.44191067 </i>
   </energy>
  </scstep>
  <scstep>
   <time name="dav">   15.18   16.47</time>
   <time name="total">   28.01   29.33</time>
   <energy>
    <i name="e_fr_energy">   -377.44399652 </i>
    <i name="e_wo_entrp">   -377.44399652 </i>
    <i name="e_0_energy">   -377.44399652 </i>
   </energy>
  </scstep>
  <scstep>
   <time name="dav">   15.03   16.32</time>
   <time name="total">   27.95   29.27</time>
   <energy>
    <i name="e_fr_energy">   -377.44538173 </i>
    <i name="e_wo_entrp">   -377.44538173 </i>
    <i name="e_0_energy">   -377.44538173 </i>
   </energy>
  </scstep>
  <scstep>
   <time name="dav">   13.29   14.47</time>
   <time name="total">   26.18   27.40</time>
   <energy>
    <i name="e_fr_energy">   -377.44630868 </i>
    <i name="e_wo_entrp">   -377.44630868 </i>
    <i name="e_0_energy">   -377.44630868 </i>
   </energy>
  </scstep>
  <scstep>
   <time name="dav">   15.04   16.33</time>
   <time name="total">   27.81   29.15</time>
   <energy>
    <i name="e_fr_energy">   -377.44690737 </i>
    <i name="e_wo_entrp">   -377.44690737 </i>
    <i name="e_0_energy">   -377.44690737 </i>
   </energy>
  </scstep>
  <scstep>
   <time name="dav">   13.30   14.47</time>
   <time name="total">   26.12   27.31</time>
   <energy>
    <i name="e_fr_energy">   -377.44716095 </i>
    <i name="e_wo_entrp">   -377.44716095 </i>
    <i name="e_0_energy">   -377.44716095 </i>
   </energy>
  </scstep>
  <scstep>
   <time name="dav">   13.18   14.39</time>
   <time name="total">   26.02   27.25</time>
   <energy>
    <i name="e_fr_energy">   -377.44737645 </i>
    <i name="e_wo_entrp">   -377.44737645 </i>
    <i name="e_0_energy">   -377.44737645 </i>
   </energy>
  </scstep>
  <scstep>
   <time name="dav">   13.27   14.44</time>
   <time name="total">   26.19   27.38</time>
   <energy>
    <i name="e_fr_energy">   -377.44746558 </i>
    <i name="e_wo_entrp">   -377.44746558 </i>
    <i name="e_0_energy">   -377.44746558 </i>
   </energy>
  </scstep>
  <scstep>
   <time name="dav">   13.26   14.38</time>
   <time name="total">   26.20   27.37</time>
   <energy>
    <i name="e_fr_energy">   -377.44753151 </i>
    <i name="e_wo_entrp">   -377.44753151 </i>
    <i name="e_0_energy">   -377.44753151 </i>
   </energy>
  </scstep>
  <scstep>
   <time name="dav">   13.07   14.27</time>
   <time name="total">   26.18   27.45</time>
   <energy>
    <i name="e_fr_energy">   -377.44755909 </i>
    <i name="e_wo_entrp">   -377.44755909 </i>
    <i name="e_0_energy">   -377.44755909 </i>
   </energy>
  </scstep>
  <scstep>
   <time name="dav">   13.20   14.40</time>
   <time name="total">   26.08   27.33</time>
   <energy>
    <i name="e_fr_energy">   -377.44757158 </i>
    <i name="e_wo_entrp">   -377.44757158 </i>
    <i name="e_0_energy">   -377.44757158 </i>
   </energy>
  </scstep>
  <scstep>
   <time name="dav">   13.07   14.26</time>
   <time name="total">   20.59   21.82</time>
   <energy>
    <i name="alphaZ">     12.91687988 </i>
    <i name="ewald">  23280.23526213 </i>
    <i name="hartreedc"> -29122.19264187 </i>
    <i name="XCdc">    424.28190173 </i>
    <i name="pawpsdc">  81135.27783068 </i>
    <i name="pawaedc"> -80962.07140423 </i>
    <i name="eentropy">     -0.00000000 </i>
    <i name="bandstr">  -2739.29532091 </i>
    <i name="atom">   7593.39991119 </i>
    <i name="e_fr_energy">   -377.44758139 </i>
    <i name="e_wo_entrp">   -377.44758139 </i>
    <i name="e_0_energy">   -377.44758139 </i>
   </energy>
  </scstep>
  <structure>
   <crystal>
    <varray name="basis" >
     <v>      20.00000000       0.00000000       0.00000000 </v>
     <v>       0.00000000      20.00000000       0.00000000 </v>
     <v>       0.00000000       0.00000000      20.00000000 </v>
    </varray>
    <i name="volume">   8000.00000000 </i>
    <varray name="rec_basis" >
     <v>       0.05000000       0.00000000       0.00000000 </v>
     <v>       0.00000000       0.05000000       0.00000000 </v>
     <v>       0.00000000       0.00000000       0.05000000 </v>
    </varray>
   </crystal>
   <varray name="positions" >
    <v>       0.47619960       0.62606623       0.67660612 </v>
    <v>       0.43793752       0.56561110       0.32757008 </v>
    <v>       0.45581208       0.52423376       0.38051465 </v>
    <v>       0.47372925       0.61530131       0.44986522 </v>
    <v>       0.45595175       0.65963312       0.39935201 </v>
    <v>       0.43785737       0.63472201       0.33675972 </v>
    <v>       0.52307882       0.32955005       0.67474498 </v>
    <v>       0.49710163       0.37190466       0.62618823 </v>
    <v>       0.60227374       0.41933300       0.60593616 </v>
    <v>       0.63096398       0.37761922       0.65422416 </v>
    <v>       0.73964927       0.52855915       0.53463181 </v>
    <v>       0.70082162       0.56612858       0.49044049 </v>
    <v>       0.63257913       0.55363620       0.48652424 </v>
    <v>       0.63952130       0.46927713       0.56732841 </v>
    <v>       0.70843899       0.47974495       0.57314689 </v>
    <v>       0.59134754       0.33224398       0.68903016 </v>
    <v>       0.36211554       0.48866484       0.56417415 </v>
    <v>       0.40790931       0.62211625       0.69058213 </v>
    <v>       0.29334713       0.47671938       0.56830116 </v>
    <v>       0.50295190       0.58590820       0.62668073 </v>
    <v>       0.39825425       0.53800137       0.60426081 </v>
    <v>       0.36904589       0.57756069       0.65398228 </v>
    <v>       0.37289802       0.40579857       0.48223443 </v>
    <v>       0.30486503       0.39173492       0.48443166 </v>
    <v>       0.26422003       0.42785518       0.52821594 </v>
    <v>       0.48989745       0.29510618       0.70074864 </v>
    <v>       0.61334240       0.29968355       0.72673159 </v>
    <v>       0.68424189       0.38076917       0.66478776 </v>
    <v>       0.54225374       0.36233861       0.46129841 </v>
    <v>       0.31579090       0.57306911       0.66420366 </v>
    <v>       0.44416348       0.37118871       0.61364770 </v>
    <v>       0.42392665       0.66833230       0.29622671 </v>
    <v>       0.45642762       0.71313270       0.40950260 </v>
    <v>       0.48809132       0.63358802       0.49907234 </v>
    <v>       0.56912778       0.41808713       0.41480476 </v>
    <v>       0.73767440       0.44963919       0.60776512 </v>
    <v>       0.72277620       0.60481012       0.45904817 </v>
    <v>       0.45570253       0.47012894       0.37468790 </v>
    <v>       0.40614333       0.37888556       0.44852541 </v>
    <v>       0.28443799       0.35306162       0.45202062 </v>
    <v>       0.79326502       0.53703787       0.53892527 </v>
    <v>       0.55589708       0.58769132       0.61440612 </v>
    <v>       0.42412006       0.54328620       0.27986105 </v>
    <v>       0.50894741       0.65984570       0.70400156 </v>
    <v>       0.26265982       0.50568523       0.60265428 </v>
    <v>       0.21072272       0.41813760       0.53105039 </v>
    <v>       0.60090654       0.58197914       0.45254259 </v>
    <v>       0.38544357       0.65296704       0.72941133 </v>
    <v>       0.47424490       0.54794204       0.44140236 </v>
    <v>       0.40180479       0.45306079       0.52108436 </v>
    <v>       0.53520702       0.41608490       0.59173240 </v>
    <v>       0.46544808       0.54254992       0.59041194 </v>
    <v>       0.60138410       0.50650621       0.52397638 </v>
    <v>       0.53073984       0.40562607       0.44215451 </v>
    <v>       0.50088568       0.48087016       0.51934246 </v>
   </varray>
  </structure>
  <varray name="forces" >
   <v>       0.04689797      -0.23769607      -0.26024695 </v>
   <v>      -0.00666602       0.00018572      -0.00466187 </v>
   <v>       0.00376894      -0.02114559       0.00800274 </v>
   <v>      -0.01124027      -0.01762503      -0.03317304 </v>
   <v>       0.00875995       0.02103729       0.04146469 </v>
   <v>       0.00216323      -0.01401842      -0.00267529 </v>
   <v>      -0.00295572      -0.00843970       0.01599715 </v>
   <v>      -0.00358001       0.01375940      -0.02580064 </v>
   <v>      -0.01638091      -0.00663176      -0.00197257 </v>
   <v>       0.00950719       0.01431816      -0.00334453 </v>
   <v>      -0.01019321       0.01369259      -0.01686823 </v>
   <v>       0.02572501       0.00122986       0.00827736 </v>
   <v>      -0.03651628       0.01142315      -0.01460748 </v>
   <v>      -0.00008197      -0.00040896      -0.00910986 </v>
   <v>      -0.00521561      -0.00750638       0.01021635 </v>
   <v>      -0.01985681      -0.00052995      -0.00671355 </v>
   <v>      -0.00479045       0.01153369       0.00913470 </v>
   <v>       0.72193574      -0.01014220      -0.19964199 </v>
   <v>      -0.01293766       0.04990245       0.05559469 </v>
   <v>      -0.53060238       0.49001739       0.69692391 </v>
   <v>      -0.33079036      -0.07754353       0.01076021 </v>
   <v>       0.13556750       0.04764415       0.00242202 </v>
   <v>       0.12147679       0.05088728       0.02558584 </v>
   <v>      -0.05611621       0.03167939       0.04490139 </v>
   <v>      -0.04049950      -0.01451029      -0.00437617 </v>
   <v>      -0.00143437      -0.00646170       0.00142402 </v>
   <v>       0.00215615      -0.00628812       0.00364486 </v>
   <v>      -0.00003991      -0.00340163       0.00093618 </v>
   <v>       0.01055650      -0.03114588      -0.00621279 </v>
   <v>       0.03808642       0.06316368       0.05045429 </v>
   <v>      -0.00369030      -0.02243657       0.00078774 </v>
   <v>      -0.00134283       0.00706255       0.00067504 </v>
   <v>       0.00359567       0.00386707      -0.00521023 </v>
   <v>       0.01444421       0.02774996      -0.02431786 </v>
   <v>       0.01350955       0.00097196      -0.02265271 </v>
   <v>       0.00684695      -0.00136146      -0.00141007 </v>
   <v>       0.00324699       0.00072995      -0.00756388 </v>
   <v>      -0.00174559      -0.00179305      -0.01100562 </v>
   <v>       0.00093747       0.00009358       0.00111575 </v>
   <v>      -0.00786459      -0.00870632      -0.00403122 </v>
   <v>       0.00279705       0.00079564      -0.00063429 </v>
   <v>      -0.00713828       0.11827067       0.12829570 </v>
   <v>      -0.00412309      -0.00034086       0.00340550 </v>
   <v>      -0.72261393      -0.71704667      -0.57421140 </v>
   <v>      -0.03472879      -0.01093721      -0.00313047 </v>
   <v>      -0.00312960       0.00225121       0.00159725 </v>
   <v>       0.00672116      -0.00117118      -0.01226703 </v>
   <v>       0.17462322       0.06115147       0.01780321 </v>
   <v>      -0.00388453       0.01542606      -0.07270985 </v>
   <v>       0.09642597      -0.00585952      -0.04832936 </v>
   <v>       0.07721941      -0.11530078       0.08923278 </v>
   <v>       0.40390112       0.06578560      -0.01752573 </v>
   <v>       0.10663535       0.04408105       0.01329513 </v>
   <v>      -0.04813995       0.09679527       0.11806190 </v>
   <v>      -0.10920636       0.08294260       0.03439429 </v>
  </varray>
  <varray name="stress" >
   <v>      -2.93030461      -0.08673147      -0.02475032 </v>
   <v>      -0.08673148      -2.92921210      -0.40922894 </v>
   <v>      -0.02475035      -0.40922893      -2.97478298 </v>
  </varray>
  <energy>
   <i name="e_fr_energy">   -377.44758139 </i>
   <i name="e_wo_entrp">   -377.44758139 </i>
   <i name="e_0_energy">     -0.00000000 </i>
  </energy>
  <time name="totalsc"> 1004.55 1043.23</time>
  <eigenvalues>
   <array>
    <dimension dim="1">band</dimension>
    <dimension dim="2">kpoint</dimension>
    <dimension dim="3">spin</dimension>
    <field>eigene</field>
    <field>occ</field>
    <set>
     <set comment="spin 1">
      <set comment="kpoint 1">
       <r>  -49.0988    1.0000 </r>
       <r>  -48.9432    1.0000 </r>
       <r>  -48.7008    1.0000 </r>
       <r>  -29.1174    1.0000 </r>
       <r>  -27.5451    1.0000 </r>
       <r>  -26.8373    1.0000 </r>
       <r>  -26.5483    1.0000 </r>
       <r>  -26.1640    1.0000 </r>
       <r>  -26.1406    1.0000 </r>
       <r>  -24.0373    1.0000 </r>
       <r>  -23.0010    1.0000 </r>
       <r>  -22.4891    1.0000 </r>
       <r>  -22.4349    1.0000 </r>
       <r>  -22.3148    1.0000 </r>
       <r>  -22.2170    1.0000 </r>
       <r>  -22.0387    1.0000 </r>
       <r>  -21.5096    1.0000 </r>
       <r>  -21.1185    1.0000 </r>
       <r>  -20.7995    1.0000 </r>
       <r>  -19.5978    1.0000 </r>
       <r>  -19.3148    1.0000 </r>
       <r>  -18.7222    1.0000 </r>
       <r>  -18.4571    1.0000 </r>
       <r>  -18.1235    1.0000 </r>
       <r>  -17.9066    1.0000 </r>
       <r>  -17.8190    1.0000 </r>
       <r>  -17.6378    1.0000 </r>
       <r>  -17.6003    1.0000 </r>
       <r>  -17.3069    1.0000 </r>
       <r>  -16.7900    1.0000 </r>
       <r>  -16.6207    1.0000 </r>
       <r>  -15.8760    1.0000 </r>
       <r>  -15.7562    1.0000 </r>
       <r>  -15.5834    1.0000 </r>
       <r>  -15.2813    1.0000 </r>
       <r>  -14.7656    1.0000 </r>
       <r>  -14.6963    1.0000 </r>
       <r>  -14.6748    1.0000 </r>
       <r>  -14.3296    1.0000 </r>
       <r>  -14.1192    1.0000 </r>
       <r>  -14.0465    1.0000 </r>
       <r>  -14.0086    1.0000 </r>
       <r>  -13.9184    1.0000 </r>
       <r>  -13.7975    1.0000 </r>
       <r>  -13.7915    1.0000 </r>
       <r>  -13.5200    1.0000 </r>
       <r>  -13.3780    1.0000 </r>
       <r>  -13.3296    1.0000 </r>
       <r>  -13.2455    1.0000 </r>
       <r>  -13.1822    1.0000 </r>
       <r>  -12.9780    1.0000 </r>
       <r>  -12.9555    1.0000 </r>
       <r>  -12.7328    1.0000 </r>
       <r>  -12.6988    1.0000 </r>
       <r>  -12.4797    1.0000 </r>
       <r>  -12.4182    1.0000 </r>
       <r>  -12.3145    1.0000 </r>
       <r>  -12.2900    1.0000 </r>
       <r>  -12.1342    1.0000 </r>
       <r>  -12.0187    1.0000 </r>
       <r>  -11.7181    1.0000 </r>
       <r>  -11.3161    1.0000 </r>
       <r>  -11.2549    1.0000 </r>
       <r>  -11.1652    1.0000 </r>
       <r>  -11.1211    1.0000 </r>
       <r>  -11.0841    1.0000 </r>
       <r>  -10.7709    1.0000 </r>
       <r>  -10.7555    1.0000 </r>
       <r>  -10.5911    1.0000 </r>
       <r>  -10.3972    1.0000 </r>
       <r>   -9.9650    1.0000 </r>
       <r>   -9.9380    1.0000 </r>
       <r>   -9.8434    1.0000 </r>
       <r>   -9.7712    1.0000 </r>
       <r>   -9.7192    1.0000 </r>
       <r>   -9.6300    1.0000 </r>
       <r>   -9.4079    1.0000 </r>
       <r>   -8.9805    1.0000 </r>
       <r>   -8.7380    1.0000 </r>
       <r>   -8.4030    1.0000 </r>
       <r>   -7.4181    1.0000 </r>
       <r>   -7.2662    1.0000 </r>
       <r>   -7.1196    1.0000 </r>
       <r>   -5.7035    0.0000 </r>
       <r>   -5.0320    0.0000 </r>
       <r>   -4.9925    0.0000 </r>
       <r>   -4.2493    0.0000 </r>
       <r>   -4.1700    0.0000 </r>
       <r>   -4.1217    0.0000 </r>
       <r>   -3.9846    0.0000 </r>
       <r>   -3.9149    0.0000 </r>
       <r>   -3.5325    0.0000 </r>
       <r>   -3.4243    0.0000 </r>
       <r>   -3.0709    0.0000 </r>
       <r>   -2.7860    0.0000 </r>
       <r>   -2.7451    0.0000 </r>
       <r>   -2.0688    0.0000 </r>
       <r>   -1.7143    0.0000 </r>
       <r>   -1.5407    0.0000 </r>
       <r>   -1.3324    0.0000 </r>
       <r>   -1.2886    0.0000 </r>
       <r>   -1.2176    0.0000 </r>
       <r>   -1.1276    0.0000 </r>
       <r>   -1.0197    0.0000 </r>
       <r>   -0.8765    0.0000 </r>
       <r>   -0.8405    0.0000 </r>
       <r>   -0.6703    0.0000 </r>
       <r>   -0.6438    0.0000 </r>
       <r>   -0.5363    0.0000 </r>
       <r>   -0.5267    0.0000 </r>
       <r>   -0.4414    0.0000 </r>
       <r>   -0.3243    0.0000 </r>
       <r>   -0.2555    0.0000 </r>
       <r>   -0.1392    0.0000 </r>
       <r>   -0.0244    0.0000 </r>
       <r>   -0.0081    0.0000 </r>
       <r>    0.1137    0.0000 </r>
       <r>    0.1695    0.0000 </r>
       <r>    0.2531    0.0000 </r>
       <r>    0.3060    0.0000 </r>
       <r>    0.3400    0.0000 </r>
       <r>    0.3898    0.0000 </r>
       <r>    0.4481    0.0000 </r>
       <r>    0.4845    0.0000 </r>
       <r>    0.5730    0.0000 </r>
       <r>    0.6263    0.0000 </r>
       <r>    0.6480    0.0000 </r>
       <r>    0.6806    0.0000 </r>
      </set>
     </set>
     <set comment="spin 2">
      <set comment="kpoint 1">
       <r>  -49.0988    1.0000 </r>
       <r>  -48.9432    1.0000 </r>
       <r>  -48.7008    1.0000 </r>
       <r>  -29.1174    1.0000 </r>
       <r>  -27.5451    1.0000 </r>
       <r>  -26.8373    1.0000 </r>
       <r>  -26.5483    1.0000 </r>
       <r>  -26.1640    1.0000 </r>
       <r>  -26.1406    1.0000 </r>
       <r>  -24.0373    1.0000 </r>
       <r>  -23.0010    1.0000 </r>
       <r>  -22.4891    1.0000 </r>
       <r>  -22.4349    1.0000 </r>
       <r>  -22.3148    1.0000 </r>
       <r>  -22.2170    1.0000 </r>
       <r>  -22.0387    1.0000 </r>
       <r>  -21.5096    1.0000 </r>
       <r>  -21.1185    1.0000 </r>
       <r>  -20.7995    1.0000 </r>
       <r>  -19.5978    1.0000 </r>
       <r>  -19.3148    1.0000 </r>
       <r>  -18.7222    1.0000 </r>
       <r>  -18.4571    1.0000 </r>
       <r>  -18.1235    1.0000 </r>
       <r>  -17.9066    1.0000 </r>
       <r>  -17.8190    1.0000 </r>
       <r>  -17.6378    1.0000 </r>
       <r>  -17.6003    1.0000 </r>
       <r>  -17.3069    1.0000 </r>
       <r>  -16.7900    1.0000 </r>
       <r>  -16.6207    1.0000 </r>
       <r>  -15.8760    1.0000 </r>
       <r>  -15.7562    1.0000 </r>
       <r>  -15.5834    1.0000 </r>
       <r>  -15.2813    1.0000 </r>
       <r>  -14.7656    1.0000 </r>
       <r>  -14.6963    1.0000 </r>
       <r>  -14.6748    1.0000 </r>
       <r>  -14.3296    1.0000 </r>
       <r>  -14.1192    1.0000 </r>
       <r>  -14.0465    1.0000 </r>
       <r>  -14.0086    1.0000 </r>
       <r>  -13.9184    1.0000 </r>
       <r>  -13.7975    1.0000 </r>
       <r>  -13.7915    1.0000 </r>
       <r>  -13.5200    1.0000 </r>
       <r>  -13.3780    1.0000 </r>
       <r>  -13.3296    1.0000 </r>
       <r>  -13.2455    1.0000 </r>
       <r>  -13.1822    1.0000 </r>
       <r>  -12.9780    1.0000 </r>
       <r>  -12.9555    1.0000 </r>
       <r>  -12.7328    1.0000 </r>
       <r>  -12.6988    1.0000 </r>
       <r>  -12.4797    1.0000 </r>
       <r>  -12.4182    1.0000 </r>
       <r>  -12.3145    1.0000 </r>
       <r>  -12.2900    1.0000 </r>
       <r>  -12.1342    1.0000 </r>
       <r>  -12.0187    1.0000 </r>
       <r>  -11.7181    1.0000 </r>
       <r>  -11.3161    1.0000 </r>
       <r>  -11.2549    1.0000 </r>
       <r>  -11.1652    1.0000 </r>
       <r>  -11.1211    1.0000 </r>
       <r>  -11.0841    1.0000 </r>
       <r>  -10.7709    1.0000 </r>
       <r>  -10.7555    1.0000 </r>
       <r>  -10.5911    1.0000 </r>
       <r>  -10.3972    1.0000 </r>
       <r>   -9.9650    1.0000 </r>
       <r>   -9.9380    1.0000 </r>
       <r>   -9.8434    1.0000 </r>
       <r>   -9.7712    1.0000 </r>
       <r>   -9.7192    1.0000 </r>
       <r>   -9.6300    1.0000 </r>
       <r>   -9.4079    1.0000 </r>
       <r>   -8.9805    1.0000 </r>
       <r>   -8.7380    1.0000 </r>
       <r>   -8.4030    1.0000 </r>
       <r>   -7.4181    1.0000 </r>
       <r>   -7.2662    1.0000 </r>
       <r>   -7.1196    1.0000 </r>
       <r>   -5.7035    0.0000 </r>
       <r>   -5.0320    0.0000 </r>
       <r>   -4.9925    0.0000 </r>
       <r>   -4.2493    0.0000 </r>
       <r>   -4.1700    0.0000 </r>
       <r>   -4.1217    0.0000 </r>
       <r>   -3.9846    0.0000 </r>
       <r>   -3.9149    0.0000 </r>
       <r>   -3.5325    0.0000 </r>
       <r>   -3.4243    0.0000 </r>
       <r>   -3.0709    0.0000 </r>
       <r>   -2.7860    0.0000 </r>
       <r>   -2.7451    0.0000 </r>
       <r>   -2.0688    0.0000 </r>
       <r>   -1.7143    0.0000 </r>
       <r>   -1.5407    0.0000 </r>
       <r>   -1.3324    0.0000 </r>
       <r>   -1.2886    0.0000 </r>
       <r>   -1.2176    0.0000 </r>
       <r>   -1.1276    0.0000 </r>
       <r>   -1.0197    0.0000 </r>
       <r>   -0.8765    0.0000 </r>
       <r>   -0.8405    0.0000 </r>
       <r>   -0.6703    0.0000 </r>
       <r>   -0.6438    0.0000 </r>
       <r>   -0.5363    0.0000 </r>
       <r>   -0.5267    0.0000 </r>
       <r>   -0.4414    0.0000 </r>
       <r>   -0.3243    0.0000 </r>
       <r>   -0.2555    0.0000 </r>
       <r>   -0.1392    0.0000 </r>
       <r>   -0.0244    0.0000 </r>
       <r>   -0.0081    0.0000 </r>
       <r>    0.1137    0.0000 </r>
       <r>    0.1695    0.0000 </r>
       <r>    0.2531    0.0000 </r>
       <r>    0.3060    0.0000 </r>
       <r>    0.3400    0.0000 </r>
       <r>    0.3898    0.0000 </r>
       <r>    0.4481    0.0000 </r>
       <r>    0.4845    0.0000 </r>
       <r>    0.5730    0.0000 </r>
       <r>    0.6263    0.0000 </r>
       <r>    0.6480    0.0000 </r>
       <r>    0.6802    0.0000 </r>
      </set>
     </set>
    </set>
   </array>
  </eigenvalues>
  <separator name="orbital magnetization" >
   <v name="MAGDIPOLOUT">      0.00000000      0.00000000      0.00000000</v>
  </separator>
  <dos>
   <i name="efermi">     -7.00615937 </i>
   <total>
    <array>
     <dimension dim="1">gridpoints</dimension>
     <dimension dim="2">spin</dimension>
     <field>energy</field>
     <field>total</field>
     <field>integrated</field>
     <set>
      <set comment="spin 1">
       <r>   -51.5878     0.0000     0.0000 </r>
       <r>   -51.4053     0.0000     0.0000 </r>
       <r>   -51.2227     0.0000     0.0000 </r>
       <r>   -51.0402     0.0000     0.0000 </r>
       <r>   -50.8577     0.0000     0.0000 </r>
       <r>   -50.6752     0.0000     0.0000 </r>
       <r>   -50.4926     0.0000     0.0000 </r>
       <r>   -50.3101     0.0000     0.0000 </r>
       <r>   -50.1276     0.0000     0.0000 </r>
       <r>   -49.9451     0.0000     0.0000 </r>
       <r>   -49.7625     0.0000     0.0000 </r>
       <r>   -49.5800     0.0000     0.0000 </r>
       <r>   -49.3975     0.0000     0.0000 </r>
       <r>   -49.2150     0.0000     0.0000 </r>
       <r>   -49.0324    10.9574     2.0000 </r>
       <r>   -48.8499     0.0000     4.0000 </r>
       <r>   -48.6674    10.9574     6.0000 </r>
       <r>   -48.4849     0.0000     6.0000 </r>
       <r>   -48.3023     0.0000     6.0000 </r>
       <r>   -48.1198     0.0000     6.0000 </r>
       <r>   -47.9373     0.0000     6.0000 </r>
       <r>   -47.7548     0.0000     6.0000 </r>
       <r>   -47.5722     0.0000     6.0000 </r>
       <r>   -47.3897     0.0000     6.0000 </r>
       <r>   -47.2072     0.0000     6.0000 </r>
       <r>   -47.0247     0.0000     6.0000 </r>
       <r>   -46.8421     0.0000     6.0000 </r>
       <r>   -46.6596     0.0000     6.0000 </r>
       <r>   -46.4771     0.0000     6.0000 </r>
       <r>   -46.2946     0.0000     6.0000 </r>
       <r>   -46.1120     0.0000     6.0000 </r>
       <r>   -45.9295     0.0000     6.0000 </r>
       <r>   -45.7470     0.0000     6.0000 </r>
       <r>   -45.5645     0.0000     6.0000 </r>
       <r>   -45.3819     0.0000     6.0000 </r>
       <r>   -45.1994     0.0000     6.0000 </r>
       <r>   -45.0169     0.0000     6.0000 </r>
       <r>   -44.8344     0.0000     6.0000 </r>
       <r>   -44.6518     0.0000     6.0000 </r>
       <r>   -44.4693     0.0000     6.0000 </r>
       <r>   -44.2868     0.0000     6.0000 </r>
       <r>   -44.1043     0.0000     6.0000 </r>
       <r>   -43.9218     0.0000     6.0000 </r>
       <r>   -43.7392     0.0000     6.0000 </r>
       <r>   -43.5567     0.0000     6.0000 </r>
       <r>   -43.3742     0.0000     6.0000 </r>
       <r>   -43.1917     0.0000     6.0000 </r>
       <r>   -43.0091     0.0000     6.0000 </r>
       <r>   -42.8266     0.0000     6.0000 </r>
       <r>   -42.6441     0.0000     6.0000 </r>
       <r>   -42.4616     0.0000     6.0000 </r>
       <r>   -42.2790     0.0000     6.0000 </r>
       <r>   -42.0965     0.0000     6.0000 </r>
       <r>   -41.9140     0.0000     6.0000 </r>
       <r>   -41.7315     0.0000     6.0000 </r>
       <r>   -41.5489     0.0000     6.0000 </r>
       <r>   -41.3664     0.0000     6.0000 </r>
       <r>   -41.1839     0.0000     6.0000 </r>
       <r>   -41.0014     0.0000     6.0000 </r>
       <r>   -40.8188     0.0000     6.0000 </r>
       <r>   -40.6363     0.0000     6.0000 </r>
       <r>   -40.4538     0.0000     6.0000 </r>
       <r>   -40.2713     0.0000     6.0000 </r>
       <r>   -40.0887     0.0000     6.0000 </r>
       <r>   -39.9062     0.0000     6.0000 </r>
       <r>   -39.7237     0.0000     6.0000 </r>
       <r>   -39.5412     0.0000     6.0000 </r>
       <r>   -39.3586     0.0000     6.0000 </r>
       <r>   -39.1761     0.0000     6.0000 </r>
       <r>   -38.9936     0.0000     6.0000 </r>
       <r>   -38.8111     0.0000     6.0000 </r>
       <r>   -38.6285     0.0000     6.0000 </r>
       <r>   -38.4460     0.0000     6.0000 </r>
       <r>   -38.2635     0.0000     6.0000 </r>
       <r>   -38.0810     0.0000     6.0000 </r>
       <r>   -37.8984     0.0000     6.0000 </r>
       <r>   -37.7159     0.0000     6.0000 </r>
       <r>   -37.5334     0.0000     6.0000 </r>
       <r>   -37.3509     0.0000     6.0000 </r>
       <r>   -37.1683     0.0000     6.0000 </r>
       <r>   -36.9858     0.0000     6.0000 </r>
       <r>   -36.8033     0.0000     6.0000 </r>
       <r>   -36.6208     0.0000     6.0000 </r>
       <r>   -36.4382     0.0000     6.0000 </r>
       <r>   -36.2557     0.0000     6.0000 </r>
       <r>   -36.0732     0.0000     6.0000 </r>
       <r>   -35.8907     0.0000     6.0000 </r>
       <r>   -35.7081     0.0000     6.0000 </r>
       <r>   -35.5256     0.0000     6.0000 </r>
       <r>   -35.3431     0.0000     6.0000 </r>
       <r>   -35.1606     0.0000     6.0000 </r>
       <r>   -34.9780     0.0000     6.0000 </r>
       <r>   -34.7955     0.0000     6.0000 </r>
       <r>   -34.6130     0.0000     6.0000 </r>
       <r>   -34.4305     0.0000     6.0000 </r>
       <r>   -34.2479     0.0000     6.0000 </r>
       <r>   -34.0654     0.0000     6.0000 </r>
       <r>   -33.8829     0.0000     6.0000 </r>
       <r>   -33.7004     0.0000     6.0000 </r>
       <r>   -33.5179     0.0000     6.0000 </r>
       <r>   -33.3353     0.0000     6.0000 </r>
       <r>   -33.1528     0.0000     6.0000 </r>
       <r>   -32.9703     0.0000     6.0000 </r>
       <r>   -32.7878     0.0000     6.0000 </r>
       <r>   -32.6052     0.0000     6.0000 </r>
       <r>   -32.4227     0.0000     6.0000 </r>
       <r>   -32.2402     0.0000     6.0000 </r>
       <r>   -32.0577     0.0000     6.0000 </r>
       <r>   -31.8751     0.0000     6.0000 </r>
       <r>   -31.6926     0.0000     6.0000 </r>
       <r>   -31.5101     0.0000     6.0000 </r>
       <r>   -31.3276     0.0000     6.0000 </r>
       <r>   -31.1450     0.0000     6.0000 </r>
       <r>   -30.9625     0.0000     6.0000 </r>
       <r>   -30.7800     0.0000     6.0000 </r>
       <r>   -30.5975     0.0000     6.0000 </r>
       <r>   -30.4149     0.0000     6.0000 </r>
       <r>   -30.2324     0.0000     6.0000 </r>
       <r>   -30.0499     0.0000     6.0000 </r>
       <r>   -29.8674     0.0000     6.0000 </r>
       <r>   -29.6848     0.0000     6.0000 </r>
       <r>   -29.5023     0.0000     6.0000 </r>
       <r>   -29.3198     0.0000     6.0000 </r>
       <r>   -29.1373     0.0278     6.0051 </r>
       <r>   -28.9547     0.0000     8.0000 </r>
       <r>   -28.7722     0.0000     8.0000 </r>
       <r>   -28.5897     0.0000     8.0000 </r>
       <r>   -28.4072     0.0000     8.0000 </r>
       <r>   -28.2246     0.0000     8.0000 </r>
       <r>   -28.0421     0.0000     8.0000 </r>
       <r>   -27.8596     0.0000     8.0000 </r>
       <r>   -27.6771     0.0000     8.0000 </r>
       <r>   -27.4945    10.9574    10.0000 </r>
       <r>   -27.3120     0.0000    10.0000 </r>
       <r>   -27.1295     0.0000    10.0000 </r>
       <r>   -26.9470     0.0000    10.0000 </r>
       <r>   -26.7644    10.9574    12.0000 </r>
       <r>   -26.5819     0.0000    12.0000 </r>
       <r>   -26.3994     0.0000    14.0000 </r>
       <r>   -26.2169     0.0000    14.0000 </r>
       <r>   -26.0343     0.0000    18.0000 </r>
       <r>   -25.8518     0.0000    18.0000 </r>
       <r>   -25.6693     0.0000    18.0000 </r>
       <r>   -25.4868     0.0000    18.0000 </r>
       <r>   -25.3042     0.0000    18.0000 </r>
       <r>   -25.1217     0.0000    18.0000 </r>
       <r>   -24.9392     0.0000    18.0000 </r>
       <r>   -24.7567     0.0000    18.0000 </r>
       <r>   -24.5741     0.0000    18.0000 </r>
       <r>   -24.3916     0.0000    18.0000 </r>
       <r>   -24.2091     0.0000    18.0000 </r>
       <r>   -24.0266    10.2516    19.8712 </r>
       <r>   -23.8440     0.0000    20.0000 </r>
       <r>   -23.6615     0.0000    20.0000 </r>
       <r>   -23.4790     0.0000    20.0000 </r>
       <r>   -23.2965     0.0000    20.0000 </r>
       <r>   -23.1140     0.0000    20.0000 </r>
       <r>   -22.9314    10.9574    22.0000 </r>
       <r>   -22.7489     0.0000    22.0000 </r>
       <r>   -22.5664     0.0000    22.0000 </r>
       <r>   -22.3839    10.9574    26.0000 </r>
       <r>   -22.2013    10.8130    29.9736 </r>
       <r>   -22.0188    10.9311    31.9952 </r>
       <r>   -21.8363     0.0000    32.0000 </r>
       <r>   -21.6538     0.0000    32.0000 </r>
       <r>   -21.4712    10.9574    34.0000 </r>
       <r>   -21.2887     0.0000    34.0000 </r>
       <r>   -21.1062    10.5131    35.9189 </r>
       <r>   -20.9237     0.0000    36.0000 </r>
       <r>   -20.7411    10.9574    38.0000 </r>
       <r>   -20.5586     0.0000    38.0000 </r>
       <r>   -20.3761     0.0000    38.0000 </r>
       <r>   -20.1936     0.0000    38.0000 </r>
       <r>   -20.0110     0.0000    38.0000 </r>
       <r>   -19.8285     0.0000    38.0000 </r>
       <r>   -19.6460     0.0000    38.0000 </r>
       <r>   -19.4635     0.0000    40.0000 </r>
       <r>   -19.2809    10.9574    42.0000 </r>
       <r>   -19.0984     0.0000    42.0000 </r>
       <r>   -18.9159     0.0000    42.0000 </r>
       <r>   -18.7334     0.6345    42.1158 </r>
       <r>   -18.5508     0.0000    44.0000 </r>
       <r>   -18.3683     0.0000    46.0000 </r>
       <r>   -18.1858     0.0000    46.0000 </r>
       <r>   -18.0033     0.0000    48.0000 </r>
       <r>   -17.8207     4.4269    50.8080 </r>
       <r>   -17.6382     5.2422    52.9568 </r>
       <r>   -17.4557     0.0000    56.0000 </r>
       <r>   -17.2732    10.9574    58.0000 </r>
       <r>   -17.0906     0.0000    58.0000 </r>
       <r>   -16.9081     0.0000    58.0000 </r>
       <r>   -16.7256    10.9574    60.0000 </r>
       <r>   -16.5431    10.9574    62.0000 </r>
       <r>   -16.3605     0.0000    62.0000 </r>
       <r>   -16.1780     0.0000    62.0000 </r>
       <r>   -15.9955     0.0000    62.0000 </r>
       <r>   -15.8130    10.9574    64.0000 </r>
       <r>   -15.6304     0.0000    66.0000 </r>
       <r>   -15.4479     0.0000    68.0000 </r>
       <r>   -15.2654    10.8237    69.9756 </r>
       <r>   -15.0829     0.0000    70.0000 </r>
       <r>   -14.9003     0.0000    70.0000 </r>
       <r>   -14.7178    10.9705    72.0024 </r>
       <r>   -14.5353     0.0000    76.0000 </r>
       <r>   -14.3528     0.0059    76.0011 </r>
       <r>   -14.1702     0.0000    78.0000 </r>
       <r>   -13.9877    21.8979    83.9969 </r>
       <r>   -13.8052     1.7866    86.3261 </r>
       <r>   -13.6227     0.0000    90.0000 </r>
       <r>   -13.4402    10.9574    92.0000 </r>
       <r>   -13.2576    11.4305    96.0864 </r>
       <r>   -13.0751     0.0000   100.0000 </r>
       <r>   -12.8926    10.9574   104.0000 </r>
       <r>   -12.7101    11.5575   106.1095 </r>
       <r>   -12.5275     0.0000   108.0000 </r>
       <r>   -12.3450    10.9575   112.0000 </r>
       <r>   -12.1625     0.0003   116.0001 </r>
       <r>   -11.9800    10.9574   120.0000 </r>
       <r>   -11.7974     0.0000   120.0000 </r>
       <r>   -11.6149     0.0000   122.0000 </r>
       <r>   -11.4324     0.0000   122.0000 </r>
       <r>   -11.2499    19.2880   125.5205 </r>
       <r>   -11.0673    21.8187   131.9824 </r>
       <r>   -10.8848     0.0000   132.0000 </r>
       <r>   -10.7023    21.9149   136.0000 </r>
       <r>   -10.5198    10.9574   138.0000 </r>
       <r>   -10.3372    10.9574   140.0000 </r>
       <r>   -10.1547     0.0000   140.0000 </r>
       <r>    -9.9722     1.6868   140.3079 </r>
       <r>    -9.7897    11.0069   146.0090 </r>
       <r>    -9.6071    10.9509   151.9988 </r>
       <r>    -9.4246     0.0995   152.0182 </r>
       <r>    -9.2421     0.0000   154.0000 </r>
       <r>    -9.0596     0.0000   154.0000 </r>
       <r>    -8.8770     0.0000   156.0000 </r>
       <r>    -8.6945    10.9574   158.0000 </r>
       <r>    -8.5120     0.0000   158.0000 </r>
       <r>    -8.3295    10.9574   160.0000 </r>
       <r>    -8.1469     0.0000   160.0000 </r>
       <r>    -7.9644     0.0000   160.0000 </r>
       <r>    -7.7819     0.0000   160.0000 </r>
       <r>    -7.5994     0.0000   160.0000 </r>
       <r>    -7.4168     6.2400   161.1389 </r>
       <r>    -7.2343    10.9574   164.0000 </r>
       <r>    -7.0518    10.9574   166.0000 </r>
       <r>    -6.8693     0.0000   166.0000 </r>
       <r>    -6.6867     0.0000   166.0000 </r>
       <r>    -6.5042     0.0000   166.0000 </r>
       <r>    -6.3217     0.0000   166.0000 </r>
       <r>    -6.1392     0.0000   166.0000 </r>
       <r>    -5.9566     0.0000   166.0000 </r>
       <r>    -5.7741     0.0000   166.0000 </r>
       <r>    -5.5916     0.0000   168.0000 </r>
       <r>    -5.4091     0.0000   168.0000 </r>
       <r>    -5.2265     0.0000   168.0000 </r>
       <r>    -5.0440     0.4863   168.0888 </r>
       <r>    -4.8615     0.0000   172.0000 </r>
       <r>    -4.6790     0.0000   172.0000 </r>
       <r>    -4.4964     0.0000   172.0000 </r>
       <r>    -4.3139     0.0000   172.0000 </r>
       <r>    -4.1314    11.8899   176.1702 </r>
       <r>    -3.9489    10.9574   180.0000 </r>
       <r>    -3.7663     0.0000   182.0000 </r>
       <r>    -3.5838     0.0000   182.0000 </r>
       <r>    -3.4013    10.9510   185.9988 </r>
       <r>    -3.2188     0.0000   186.0000 </r>
       <r>    -3.0363    10.9574   188.0000 </r>
       <r>    -2.8537     0.0000   188.0000 </r>
       <r>    -2.6712    10.9574   192.0000 </r>
       <r>    -2.4887     0.0000   192.0000 </r>
       <r>    -2.3062     0.0000   192.0000 </r>
       <r>    -2.1236     0.0000   192.0000 </r>
       <r>    -1.9411     0.0000   194.0000 </r>
       <r>    -1.7586     0.0000   194.0000 </r>
       <r>    -1.5761     0.0000   196.0000 </r>
       <r>    -1.3935     0.0000   198.0000 </r>
       <r>    -1.2110    20.0004   203.6506 </r>
       <r>    -1.0285     1.1676   206.2131 </r>
       <r>    -0.8460    13.3680   210.4400 </r>
       <r>    -0.6634     9.1688   213.6735 </r>
       <r>    -0.4809    21.9149   220.0000 </r>
       <r>    -0.2984    10.9561   223.9997 </r>
       <r>    -0.1159    10.9521   227.9990 </r>
       <r>     0.0667    10.9574   232.0000 </r>
       <r>     0.2492    14.1248   236.5781 </r>
       <r>     0.4317    11.0679   244.0202 </r>
       <r>     0.6142    11.4338   250.0870 </r>
       <r>     0.7968     0.0000   256.0000 </r>
       <r>     0.9793     0.0000   256.0000 </r>
       <r>     1.1618     0.0000   256.0000 </r>
       <r>     1.3443     0.0000   256.0000 </r>
       <r>     1.5269     0.0000   256.0000 </r>
       <r>     1.7094     0.0000   256.0000 </r>
       <r>     1.8919     0.0000   256.0000 </r>
       <r>     2.0744     0.0000   256.0000 </r>
       <r>     2.2570     0.0000   256.0000 </r>
       <r>     2.4395     0.0000   256.0000 </r>
       <r>     2.6220     0.0000   256.0000 </r>
       <r>     2.8045     0.0000   256.0000 </r>
       <r>     2.9871     0.0000   256.0000 </r>
       <r>     3.1696     0.0000   256.0000 </r>
      </set>
      <set comment="spin 2">
       <r>   -51.5878     0.0000     0.0000 </r>
       <r>   -51.4053     0.0000     0.0000 </r>
       <r>   -51.2227     0.0000     0.0000 </r>
       <r>   -51.0402     0.0000     0.0000 </r>
       <r>   -50.8577     0.0000     0.0000 </r>
       <r>   -50.6752     0.0000     0.0000 </r>
       <r>   -50.4926     0.0000     0.0000 </r>
       <r>   -50.3101     0.0000     0.0000 </r>
       <r>   -50.1276     0.0000     0.0000 </r>
       <r>   -49.9451     0.0000     0.0000 </r>
       <r>   -49.7625     0.0000     0.0000 </r>
       <r>   -49.5800     0.0000     0.0000 </r>
       <r>   -49.3975     0.0000     0.0000 </r>
       <r>   -49.2150     0.0000     0.0000 </r>
       <r>   -49.0324    10.9574     2.0000 </r>
       <r>   -48.8499     0.0000     4.0000 </r>
       <r>   -48.6674    10.9574     6.0000 </r>
       <r>   -48.4849     0.0000     6.0000 </r>
       <r>   -48.3023     0.0000     6.0000 </r>
       <r>   -48.1198     0.0000     6.0000 </r>
       <r>   -47.9373     0.0000     6.0000 </r>
       <r>   -47.7548     0.0000     6.0000 </r>
       <r>   -47.5722     0.0000     6.0000 </r>
       <r>   -47.3897     0.0000     6.0000 </r>
       <r>   -47.2072     0.0000     6.0000 </r>
       <r>   -47.0247     0.0000     6.0000 </r>
       <r>   -46.8421     0.0000     6.0000 </r>
       <r>   -46.6596     0.0000     6.0000 </r>
       <r>   -46.4771     0.0000     6.0000 </r>
       <r>   -46.2946     0.0000     6.0000 </r>
       <r>   -46.1120     0.0000     6.0000 </r>
       <r>   -45.9295     0.0000     6.0000 </r>
       <r>   -45.7470     0.0000     6.0000 </r>
       <r>   -45.5645     0.0000     6.0000 </r>
       <r>   -45.3819     0.0000     6.0000 </r>
       <r>   -45.1994     0.0000     6.0000 </r>
       <r>   -45.0169     0.0000     6.0000 </r>
       <r>   -44.8344     0.0000     6.0000 </r>
       <r>   -44.6518     0.0000     6.0000 </r>
       <r>   -44.4693     0.0000     6.0000 </r>
       <r>   -44.2868     0.0000     6.0000 </r>
       <r>   -44.1043     0.0000     6.0000 </r>
       <r>   -43.9218     0.0000     6.0000 </r>
       <r>   -43.7392     0.0000     6.0000 </r>
       <r>   -43.5567     0.0000     6.0000 </r>
       <r>   -43.3742     0.0000     6.0000 </r>
       <r>   -43.1917     0.0000     6.0000 </r>
       <r>   -43.0091     0.0000     6.0000 </r>
       <r>   -42.8266     0.0000     6.0000 </r>
       <r>   -42.6441     0.0000     6.0000 </r>
       <r>   -42.4616     0.0000     6.0000 </r>
       <r>   -42.2790     0.0000     6.0000 </r>
       <r>   -42.0965     0.0000     6.0000 </r>
       <r>   -41.9140     0.0000     6.0000 </r>
       <r>   -41.7315     0.0000     6.0000 </r>
       <r>   -41.5489     0.0000     6.0000 </r>
       <r>   -41.3664     0.0000     6.0000 </r>
       <r>   -41.1839     0.0000     6.0000 </r>
       <r>   -41.0014     0.0000     6.0000 </r>
       <r>   -40.8188     0.0000     6.0000 </r>
       <r>   -40.6363     0.0000     6.0000 </r>
       <r>   -40.4538     0.0000     6.0000 </r>
       <r>   -40.2713     0.0000     6.0000 </r>
       <r>   -40.0887     0.0000     6.0000 </r>
       <r>   -39.9062     0.0000     6.0000 </r>
       <r>   -39.7237     0.0000     6.0000 </r>
       <r>   -39.5412     0.0000     6.0000 </r>
       <r>   -39.3586     0.0000     6.0000 </r>
       <r>   -39.1761     0.0000     6.0000 </r>
       <r>   -38.9936     0.0000     6.0000 </r>
       <r>   -38.8111     0.0000     6.0000 </r>
       <r>   -38.6285     0.0000     6.0000 </r>
       <r>   -38.4460     0.0000     6.0000 </r>
       <r>   -38.2635     0.0000     6.0000 </r>
       <r>   -38.0810     0.0000     6.0000 </r>
       <r>   -37.8984     0.0000     6.0000 </r>
       <r>   -37.7159     0.0000     6.0000 </r>
       <r>   -37.5334     0.0000     6.0000 </r>
       <r>   -37.3509     0.0000     6.0000 </r>
       <r>   -37.1683     0.0000     6.0000 </r>
       <r>   -36.9858     0.0000     6.0000 </r>
       <r>   -36.8033     0.0000     6.0000 </r>
       <r>   -36.6208     0.0000     6.0000 </r>
       <r>   -36.4382     0.0000     6.0000 </r>
       <r>   -36.2557     0.0000     6.0000 </r>
       <r>   -36.0732     0.0000     6.0000 </r>
       <r>   -35.8907     0.0000     6.0000 </r>
       <r>   -35.7081     0.0000     6.0000 </r>
       <r>   -35.5256     0.0000     6.0000 </r>
       <r>   -35.3431     0.0000     6.0000 </r>
       <r>   -35.1606     0.0000     6.0000 </r>
       <r>   -34.9780     0.0000     6.0000 </r>
       <r>   -34.7955     0.0000     6.0000 </r>
       <r>   -34.6130     0.0000     6.0000 </r>
       <r>   -34.4305     0.0000     6.0000 </r>
       <r>   -34.2479     0.0000     6.0000 </r>
       <r>   -34.0654     0.0000     6.0000 </r>
       <r>   -33.8829     0.0000     6.0000 </r>
       <r>   -33.7004     0.0000     6.0000 </r>
       <r>   -33.5179     0.0000     6.0000 </r>
       <r>   -33.3353     0.0000     6.0000 </r>
       <r>   -33.1528     0.0000     6.0000 </r>
       <r>   -32.9703     0.0000     6.0000 </r>
       <r>   -32.7878     0.0000     6.0000 </r>
       <r>   -32.6052     0.0000     6.0000 </r>
       <r>   -32.4227     0.0000     6.0000 </r>
       <r>   -32.2402     0.0000     6.0000 </r>
       <r>   -32.0577     0.0000     6.0000 </r>
       <r>   -31.8751     0.0000     6.0000 </r>
       <r>   -31.6926     0.0000     6.0000 </r>
       <r>   -31.5101     0.0000     6.0000 </r>
       <r>   -31.3276     0.0000     6.0000 </r>
       <r>   -31.1450     0.0000     6.0000 </r>
       <r>   -30.9625     0.0000     6.0000 </r>
       <r>   -30.7800     0.0000     6.0000 </r>
       <r>   -30.5975     0.0000     6.0000 </r>
       <r>   -30.4149     0.0000     6.0000 </r>
       <r>   -30.2324     0.0000     6.0000 </r>
       <r>   -30.0499     0.0000     6.0000 </r>
       <r>   -29.8674     0.0000     6.0000 </r>
       <r>   -29.6848     0.0000     6.0000 </r>
       <r>   -29.5023     0.0000     6.0000 </r>
       <r>   -29.3198     0.0000     6.0000 </r>
       <r>   -29.1373     0.0278     6.0051 </r>
       <r>   -28.9547     0.0000     8.0000 </r>
       <r>   -28.7722     0.0000     8.0000 </r>
       <r>   -28.5897     0.0000     8.0000 </r>
       <r>   -28.4072     0.0000     8.0000 </r>
       <r>   -28.2246     0.0000     8.0000 </r>
       <r>   -28.0421     0.0000     8.0000 </r>
       <r>   -27.8596     0.0000     8.0000 </r>
       <r>   -27.6771     0.0000     8.0000 </r>
       <r>   -27.4945    10.9574    10.0000 </r>
       <r>   -27.3120     0.0000    10.0000 </r>
       <r>   -27.1295     0.0000    10.0000 </r>
       <r>   -26.9470     0.0000    10.0000 </r>
       <r>   -26.7644    10.9574    12.0000 </r>
       <r>   -26.5819     0.0000    12.0000 </r>
       <r>   -26.3994     0.0000    14.0000 </r>
       <r>   -26.2169     0.0000    14.0000 </r>
       <r>   -26.0343     0.0000    18.0000 </r>
       <r>   -25.8518     0.0000    18.0000 </r>
       <r>   -25.6693     0.0000    18.0000 </r>
       <r>   -25.4868     0.0000    18.0000 </r>
       <r>   -25.3042     0.0000    18.0000 </r>
       <r>   -25.1217     0.0000    18.0000 </r>
       <r>   -24.9392     0.0000    18.0000 </r>
       <r>   -24.7567     0.0000    18.0000 </r>
       <r>   -24.5741     0.0000    18.0000 </r>
       <r>   -24.3916     0.0000    18.0000 </r>
       <r>   -24.2091     0.0000    18.0000 </r>
       <r>   -24.0266    10.2516    19.8712 </r>
       <r>   -23.8440     0.0000    20.0000 </r>
       <r>   -23.6615     0.0000    20.0000 </r>
       <r>   -23.4790     0.0000    20.0000 </r>
       <r>   -23.2965     0.0000    20.0000 </r>
       <r>   -23.1140     0.0000    20.0000 </r>
       <r>   -22.9314    10.9574    22.0000 </r>
       <r>   -22.7489     0.0000    22.0000 </r>
       <r>   -22.5664     0.0000    22.0000 </r>
       <r>   -22.3839    10.9574    26.0000 </r>
       <r>   -22.2013    10.8130    29.9736 </r>
       <r>   -22.0188    10.9311    31.9952 </r>
       <r>   -21.8363     0.0000    32.0000 </r>
       <r>   -21.6538     0.0000    32.0000 </r>
       <r>   -21.4712    10.9574    34.0000 </r>
       <r>   -21.2887     0.0000    34.0000 </r>
       <r>   -21.1062    10.5131    35.9189 </r>
       <r>   -20.9237     0.0000    36.0000 </r>
       <r>   -20.7411    10.9574    38.0000 </r>
       <r>   -20.5586     0.0000    38.0000 </r>
       <r>   -20.3761     0.0000    38.0000 </r>
       <r>   -20.1936     0.0000    38.0000 </r>
       <r>   -20.0110     0.0000    38.0000 </r>
       <r>   -19.8285     0.0000    38.0000 </r>
       <r>   -19.6460     0.0000    38.0000 </r>
       <r>   -19.4635     0.0000    40.0000 </r>
       <r>   -19.2809    10.9574    42.0000 </r>
       <r>   -19.0984     0.0000    42.0000 </r>
       <r>   -18.9159     0.0000    42.0000 </r>
       <r>   -18.7334     0.6345    42.1158 </r>
       <r>   -18.5508     0.0000    44.0000 </r>
       <r>   -18.3683     0.0000    46.0000 </r>
       <r>   -18.1858     0.0000    46.0000 </r>
       <r>   -18.0033     0.0000    48.0000 </r>
       <r>   -17.8207     4.4269    50.8080 </r>
       <r>   -17.6382     5.2422    52.9568 </r>
       <r>   -17.4557     0.0000    56.0000 </r>
       <r>   -17.2732    10.9574    58.0000 </r>
       <r>   -17.0906     0.0000    58.0000 </r>
       <r>   -16.9081     0.0000    58.0000 </r>
       <r>   -16.7256    10.9574    60.0000 </r>
       <r>   -16.5431    10.9574    62.0000 </r>
       <r>   -16.3605     0.0000    62.0000 </r>
       <r>   -16.1780     0.0000    62.0000 </r>
       <r>   -15.9955     0.0000    62.0000 </r>
       <r>   -15.8130    10.9574    64.0000 </r>
       <r>   -15.6304     0.0000    66.0000 </r>
       <r>   -15.4479     0.0000    68.0000 </r>
       <r>   -15.2654    10.8237    69.9756 </r>
       <r>   -15.0829     0.0000    70.0000 </r>
       <r>   -14.9003     0.0000    70.0000 </r>
       <r>   -14.7178    10.9705    72.0024 </r>
       <r>   -14.5353     0.0000    76.0000 </r>
       <r>   -14.3528     0.0059    76.0011 </r>
       <r>   -14.1702     0.0000    78.0000 </r>
       <r>   -13.9877    21.8979    83.9969 </r>
       <r>   -13.8052     1.7866    86.3261 </r>
       <r>   -13.6227     0.0000    90.0000 </r>
       <r>   -13.4402    10.9574    92.0000 </r>
       <r>   -13.2576    11.4305    96.0864 </r>
       <r>   -13.0751     0.0000   100.0000 </r>
       <r>   -12.8926    10.9574   104.0000 </r>
       <r>   -12.7101    11.5575   106.1095 </r>
       <r>   -12.5275     0.0000   108.0000 </r>
       <r>   -12.3450    10.9575   112.0000 </r>
       <r>   -12.1625     0.0003   116.0001 </r>
       <r>   -11.9800    10.9574   120.0000 </r>
       <r>   -11.7974     0.0000   120.0000 </r>
       <r>   -11.6149     0.0000   122.0000 </r>
       <r>   -11.4324     0.0000   122.0000 </r>
       <r>   -11.2499    19.2881   125.5205 </r>
       <r>   -11.0673    21.8187   131.9824 </r>
       <r>   -10.8848     0.0000   132.0000 </r>
       <r>   -10.7023    21.9149   136.0000 </r>
       <r>   -10.5198    10.9574   138.0000 </r>
       <r>   -10.3372    10.9574   140.0000 </r>
       <r>   -10.1547     0.0000   140.0000 </r>
       <r>    -9.9722     1.6868   140.3079 </r>
       <r>    -9.7897    11.0069   146.0090 </r>
       <r>    -9.6071    10.9509   151.9988 </r>
       <r>    -9.4246     0.0995   152.0182 </r>
       <r>    -9.2421     0.0000   154.0000 </r>
       <r>    -9.0596     0.0000   154.0000 </r>
       <r>    -8.8770     0.0000   156.0000 </r>
       <r>    -8.6945    10.9574   158.0000 </r>
       <r>    -8.5120     0.0000   158.0000 </r>
       <r>    -8.3295    10.9574   160.0000 </r>
       <r>    -8.1469     0.0000   160.0000 </r>
       <r>    -7.9644     0.0000   160.0000 </r>
       <r>    -7.7819     0.0000   160.0000 </r>
       <r>    -7.5994     0.0000   160.0000 </r>
       <r>    -7.4168     6.2400   161.1389 </r>
       <r>    -7.2343    10.9574   164.0000 </r>
       <r>    -7.0518    10.9574   166.0000 </r>
       <r>    -6.8693     0.0000   166.0000 </r>
       <r>    -6.6867     0.0000   166.0000 </r>
       <r>    -6.5042     0.0000   166.0000 </r>
       <r>    -6.3217     0.0000   166.0000 </r>
       <r>    -6.1392     0.0000   166.0000 </r>
       <r>    -5.9566     0.0000   166.0000 </r>
       <r>    -5.7741     0.0000   166.0000 </r>
       <r>    -5.5916     0.0000   168.0000 </r>
       <r>    -5.4091     0.0000   168.0000 </r>
       <r>    -5.2265     0.0000   168.0000 </r>
       <r>    -5.0440     0.4863   168.0888 </r>
       <r>    -4.8615     0.0000   172.0000 </r>
       <r>    -4.6790     0.0000   172.0000 </r>
       <r>    -4.4964     0.0000   172.0000 </r>
       <r>    -4.3139     0.0000   172.0000 </r>
       <r>    -4.1314    11.8899   176.1702 </r>
       <r>    -3.9489    10.9574   180.0000 </r>
       <r>    -3.7663     0.0000   182.0000 </r>
       <r>    -3.5838     0.0000   182.0000 </r>
       <r>    -3.4013    10.9510   185.9988 </r>
       <r>    -3.2188     0.0000   186.0000 </r>
       <r>    -3.0363    10.9574   188.0000 </r>
       <r>    -2.8537     0.0000   188.0000 </r>
       <r>    -2.6712    10.9574   192.0000 </r>
       <r>    -2.4887     0.0000   192.0000 </r>
       <r>    -2.3062     0.0000   192.0000 </r>
       <r>    -2.1236     0.0000   192.0000 </r>
       <r>    -1.9411     0.0000   194.0000 </r>
       <r>    -1.7586     0.0000   194.0000 </r>
       <r>    -1.5761     0.0000   196.0000 </r>
       <r>    -1.3935     0.0000   198.0000 </r>
       <r>    -1.2110    19.9997   203.6504 </r>
       <r>    -1.0285     1.1669   206.2130 </r>
       <r>    -0.8460    13.3666   210.4397 </r>
       <r>    -0.6634     9.1681   213.6734 </r>
       <r>    -0.4809    21.9149   220.0000 </r>
       <r>    -0.2984    10.9561   223.9997 </r>
       <r>    -0.1159    10.9521   227.9990 </r>
       <r>     0.0667    10.9574   232.0000 </r>
       <r>     0.2492    14.1231   236.5778 </r>
       <r>     0.4317    11.0678   244.0202 </r>
       <r>     0.6142    11.4352   250.0872 </r>
       <r>     0.7968     0.0000   256.0000 </r>
       <r>     0.9793     0.0000   256.0000 </r>
       <r>     1.1618     0.0000   256.0000 </r>
       <r>     1.3443     0.0000   256.0000 </r>
       <r>     1.5269     0.0000   256.0000 </r>
       <r>     1.7094     0.0000   256.0000 </r>
       <r>     1.8919     0.0000   256.0000 </r>
       <r>     2.0744     0.0000   256.0000 </r>
       <r>     2.2570     0.0000   256.0000 </r>
       <r>     2.4395     0.0000   256.0000 </r>
       <r>     2.6220     0.0000   256.0000 </r>
       <r>     2.8045     0.0000   256.0000 </r>
       <r>     2.9871     0.0000   256.0000 </r>
       <r>     3.1696     0.0000   256.0000 </r>
      </set>
     </set>
    </array>
   </total>
  </dos>
 </calculation>
 <structure name="finalpos" >
  <crystal>
   <varray name="basis" >
    <v>      20.00000000       0.00000000       0.00000000 </v>
    <v>       0.00000000      20.00000000       0.00000000 </v>
    <v>       0.00000000       0.00000000      20.00000000 </v>
   </varray>
   <i name="volume">   8000.00000000 </i>
   <varray name="rec_basis" >
    <v>       0.05000000       0.00000000       0.00000000 </v>
    <v>       0.00000000       0.05000000       0.00000000 </v>
    <v>       0.00000000       0.00000000       0.05000000 </v>
   </varray>
  </crystal>
  <varray name="positions" >
   <v>       0.47619960       0.62606623       0.67660612 </v>
   <v>       0.43793752       0.56561110       0.32757008 </v>
   <v>       0.45581208       0.52423376       0.38051465 </v>
   <v>       0.47372925       0.61530131       0.44986522 </v>
   <v>       0.45595175       0.65963312       0.39935201 </v>
   <v>       0.43785737       0.63472201       0.33675972 </v>
   <v>       0.52307882       0.32955005       0.67474498 </v>
   <v>       0.49710163       0.37190466       0.62618823 </v>
   <v>       0.60227374       0.41933300       0.60593616 </v>
   <v>       0.63096398       0.37761922       0.65422416 </v>
   <v>       0.73964927       0.52855915       0.53463181 </v>
   <v>       0.70082162       0.56612858       0.49044049 </v>
   <v>       0.63257913       0.55363620       0.48652424 </v>
   <v>       0.63952130       0.46927713       0.56732841 </v>
   <v>       0.70843899       0.47974495       0.57314689 </v>
   <v>       0.59134754       0.33224398       0.68903016 </v>
   <v>       0.36211554       0.48866484       0.56417415 </v>
   <v>       0.40790931       0.62211625       0.69058213 </v>
   <v>       0.29334713       0.47671938       0.56830116 </v>
   <v>       0.50295190       0.58590820       0.62668073 </v>
   <v>       0.39825425       0.53800137       0.60426081 </v>
   <v>       0.36904589       0.57756069       0.65398228 </v>
   <v>       0.37289802       0.40579857       0.48223443 </v>
   <v>       0.30486503       0.39173492       0.48443166 </v>
   <v>       0.26422003       0.42785518       0.52821594 </v>
   <v>       0.48989745       0.29510618       0.70074864 </v>
   <v>       0.61334240       0.29968355       0.72673159 </v>
   <v>       0.68424189       0.38076917       0.66478776 </v>
   <v>       0.54225374       0.36233861       0.46129841 </v>
   <v>       0.31579090       0.57306911       0.66420366 </v>
   <v>       0.44416348       0.37118871       0.61364770 </v>
   <v>       0.42392665       0.66833230       0.29622671 </v>
   <v>       0.45642762       0.71313270       0.40950260 </v>
   <v>       0.48809132       0.63358802       0.49907234 </v>
   <v>       0.56912778       0.41808713       0.41480476 </v>
   <v>       0.73767440       0.44963919       0.60776512 </v>
   <v>       0.72277620       0.60481012       0.45904817 </v>
   <v>       0.45570253       0.47012894       0.37468790 </v>
   <v>       0.40614333       0.37888556       0.44852541 </v>
   <v>       0.28443799       0.35306162       0.45202062 </v>
   <v>       0.79326502       0.53703787       0.53892527 </v>
   <v>       0.55589708       0.58769132       0.61440612 </v>
   <v>       0.42412006       0.54328620       0.27986105 </v>
   <v>       0.50894741       0.65984570       0.70400156 </v>
   <v>       0.26265982       0.50568523       0.60265428 </v>
   <v>       0.21072272       0.41813760       0.53105039 </v>
   <v>       0.60090654       0.58197914       0.45254259 </v>
   <v>       0.38544357       0.65296704       0.72941133 </v>
   <v>       0.47424490       0.54794204       0.44140236 </v>
   <v>       0.40180479       0.45306079       0.52108436 </v>
   <v>       0.53520702       0.41608490       0.59173240 </v>
   <v>       0.46544808       0.54254992       0.59041194 </v>
   <v>       0.60138410       0.50650621       0.52397638 </v>
   <v>       0.53073984       0.40562607       0.44215451 </v>
   <v>       0.50088568       0.48087016       0.51934246 </v>
  </varray>
  <varray name="selective"  type="logical" >
   <v type="logical" >  T  T  T </v>
   <v type="logical" >  T  T  T </v>
   <v type="logical" >  T  T  T </v>
   <v type="logical" >  T  T  T </v>
   <v type="logical" >  T  T  T </v>
   <v type="logical" >  T  T  T </v>
   <v type="logical" >  T  T  T </v>
   <v type="logical" >  T  T  T </v>
   <v type="logical" >  T  T  T </v>
   <v type="logical" >  T  T  T </v>
   <v type="logical" >  T  T  T </v>
   <v type="logical" >  T  T  T </v>
   <v type="logical" >  T  T  T </v>
   <v type="logical" >  T  T  T </v>
   <v type="logical" >  T  T  T </v>
   <v type="logical" >  T  T  T </v>
   <v type="logical" >  T  T  T </v>
   <v type="logical" >  T  T  T </v>
   <v type="logical" >  T  T  T </v>
   <v type="logical" >  T  T  T </v>
   <v type="logical" >  T  T  T </v>
   <v type="logical" >  T  T  T </v>
   <v type="logical" >  T  T  T </v>
   <v type="logical" >  T  T  T </v>
   <v type="logical" >  T  T  T </v>
   <v type="logical" >  T  T  T </v>
   <v type="logical" >  T  T  T </v>
   <v type="logical" >  T  T  T </v>
   <v type="logical" >  T  T  T </v>
   <v type="logical" >  T  T  T </v>
   <v type="logical" >  T  T  T </v>
   <v type="logical" >  T  T  T </v>
   <v type="logical" >  T  T  T </v>
   <v type="logical" >  T  T  T </v>
   <v type="logical" >  T  T  T </v>
   <v type="logical" >  T  T  T </v>
   <v type="logical" >  T  T  T </v>
   <v type="logical" >  T  T  T </v>
   <v type="logical" >  T  T  T </v>
   <v type="logical" >  T  T  T </v>
   <v type="logical" >  T  T  T </v>
   <v type="logical" >  T  T  T </v>
   <v type="logical" >  T  T  T </v>
   <v type="logical" >  T  T  T </v>
   <v type="logical" >  T  T  T </v>
   <v type="logical" >  T  T  T </v>
   <v type="logical" >  T  T  T </v>
   <v type="logical" >  T  T  T </v>
   <v type="logical" >  T  T  T </v>
   <v type="logical" >  T  T  T </v>
   <v type="logical" >  T  T  T </v>
   <v type="logical" >  T  T  T </v>
   <v type="logical" >  T  T  T </v>
   <v type="logical" >  T  T  T </v>
   <v type="logical" >  T  T  T </v>
  </varray>
  <nose>
   <v>      -3.00000000       0.00000000       0.00010000       0.00010000 </v>
  </nose>
 </structure>
</modeling>
