  55  55   0   0
  0.1454545E+03  0.2000000E-08  0.2000000E-08  0.2000000E-08  0.5000000E-15
  1.000000000000000E-004
  CAR 
 c2_oh2_ruthenium_mol                    
      3.18287379    -51.63537736  301     -7.00418455      1.00000000
    -51.635  0.0000E+00  0.0000E+00  0.0000E+00  0.0000E+00
    -51.453  0.0000E+00  0.0000E+00  0.0000E+00  0.0000E+00
    -51.270  0.0000E+00  0.0000E+00  0.0000E+00  0.0000E+00
    -51.087  0.0000E+00  0.0000E+00  0.0000E+00  0.0000E+00
    -50.904  0.0000E+00  0.0000E+00  0.0000E+00  0.0000E+00
    -50.722  0.0000E+00  0.0000E+00  0.0000E+00  0.0000E+00
    -50.539  0.0000E+00  0.0000E+00  0.0000E+00  0.0000E+00
    -50.356  0.0000E+00  0.0000E+00  0.0000E+00  0.0000E+00
    -50.174  0.0000E+00  0.0000E+00  0.0000E+00  0.0000E+00
    -49.991  0.0000E+00  0.0000E+00  0.0000E+00  0.0000E+00
    -49.808  0.0000E+00  0.0000E+00  0.0000E+00  0.0000E+00
    -49.625  0.0000E+00  0.0000E+00  0.0000E+00  0.0000E+00
    -49.443  0.0000E+00  0.0000E+00  0.0000E+00  0.0000E+00
    -49.260  0.0000E+00  0.0000E+00  0.0000E+00  0.0000E+00
    -49.077  0.1095E+02  0.1095E+02  0.2000E+01  0.2000E+01
    -48.894  0.0000E+00  0.0000E+00  0.4000E+01  0.4000E+01
    -48.712  0.1095E+02  0.1095E+02  0.6000E+01  0.6000E+01
    -48.529  0.0000E+00  0.0000E+00  0.6000E+01  0.6000E+01
    -48.346  0.0000E+00  0.0000E+00  0.6000E+01  0.6000E+01
    -48.164  0.0000E+00  0.0000E+00  0.6000E+01  0.6000E+01
    -47.981  0.0000E+00  0.0000E+00  0.6000E+01  0.6000E+01
    -47.798  0.0000E+00  0.0000E+00  0.6000E+01  0.6000E+01
    -47.615  0.0000E+00  0.0000E+00  0.6000E+01  0.6000E+01
    -47.433  0.0000E+00  0.0000E+00  0.6000E+01  0.6000E+01
    -47.250  0.0000E+00  0.0000E+00  0.6000E+01  0.6000E+01
    -47.067  0.0000E+00  0.0000E+00  0.6000E+01  0.6000E+01
    -46.884  0.0000E+00  0.0000E+00  0.6000E+01  0.6000E+01
    -46.702  0.0000E+00  0.0000E+00  0.6000E+01  0.6000E+01
    -46.519  0.0000E+00  0.0000E+00  0.6000E+01  0.6000E+01
    -46.336  0.0000E+00  0.0000E+00  0.6000E+01  0.6000E+01
    -46.154  0.0000E+00  0.0000E+00  0.6000E+01  0.6000E+01
    -45.971  0.0000E+00  0.0000E+00  0.6000E+01  0.6000E+01
    -45.788  0.0000E+00  0.0000E+00  0.6000E+01  0.6000E+01
    -45.605  0.0000E+00  0.0000E+00  0.6000E+01  0.6000E+01
    -45.423  0.0000E+00  0.0000E+00  0.6000E+01  0.6000E+01
    -45.240  0.0000E+00  0.0000E+00  0.6000E+01  0.6000E+01
    -45.057  0.0000E+00  0.0000E+00  0.6000E+01  0.6000E+01
    -44.874  0.0000E+00  0.0000E+00  0.6000E+01  0.6000E+01
    -44.692  0.0000E+00  0.0000E+00  0.6000E+01  0.6000E+01
    -44.509  0.0000E+00  0.0000E+00  0.6000E+01  0.6000E+01
    -44.326  0.0000E+00  0.0000E+00  0.6000E+01  0.6000E+01
    -44.144  0.0000E+00  0.0000E+00  0.6000E+01  0.6000E+01
    -43.961  0.0000E+00  0.0000E+00  0.6000E+01  0.6000E+01
    -43.778  0.0000E+00  0.0000E+00  0.6000E+01  0.6000E+01
    -43.595  0.0000E+00  0.0000E+00  0.6000E+01  0.6000E+01
    -43.413  0.0000E+00  0.0000E+00  0.6000E+01  0.6000E+01
    -43.230  0.0000E+00  0.0000E+00  0.6000E+01  0.6000E+01
    -43.047  0.0000E+00  0.0000E+00  0.6000E+01  0.6000E+01
    -42.864  0.0000E+00  0.0000E+00  0.6000E+01  0.6000E+01
    -42.682  0.0000E+00  0.0000E+00  0.6000E+01  0.6000E+01
    -42.499  0.0000E+00  0.0000E+00  0.6000E+01  0.6000E+01
    -42.316  0.0000E+00  0.0000E+00  0.6000E+01  0.6000E+01
    -42.134  0.0000E+00  0.0000E+00  0.6000E+01  0.6000E+01
    -41.951  0.0000E+00  0.0000E+00  0.6000E+01  0.6000E+01
    -41.768  0.0000E+00  0.0000E+00  0.6000E+01  0.6000E+01
    -41.585  0.0000E+00  0.0000E+00  0.6000E+01  0.6000E+01
    -41.403  0.0000E+00  0.0000E+00  0.6000E+01  0.6000E+01
    -41.220  0.0000E+00  0.0000E+00  0.6000E+01  0.6000E+01
    -41.037  0.0000E+00  0.0000E+00  0.6000E+01  0.6000E+01
    -40.854  0.0000E+00  0.0000E+00  0.6000E+01  0.6000E+01
    -40.672  0.0000E+00  0.0000E+00  0.6000E+01  0.6000E+01
    -40.489  0.0000E+00  0.0000E+00  0.6000E+01  0.6000E+01
    -40.306  0.0000E+00  0.0000E+00  0.6000E+01  0.6000E+01
    -40.124  0.0000E+00  0.0000E+00  0.6000E+01  0.6000E+01
    -39.941  0.0000E+00  0.0000E+00  0.6000E+01  0.6000E+01
    -39.758  0.0000E+00  0.0000E+00  0.6000E+01  0.6000E+01
    -39.575  0.0000E+00  0.0000E+00  0.6000E+01  0.6000E+01
    -39.393  0.0000E+00  0.0000E+00  0.6000E+01  0.6000E+01
    -39.210  0.0000E+00  0.0000E+00  0.6000E+01  0.6000E+01
    -39.027  0.0000E+00  0.0000E+00  0.6000E+01  0.6000E+01
    -38.844  0.0000E+00  0.0000E+00  0.6000E+01  0.6000E+01
    -38.662  0.0000E+00  0.0000E+00  0.6000E+01  0.6000E+01
    -38.479  0.0000E+00  0.0000E+00  0.6000E+01  0.6000E+01
    -38.296  0.0000E+00  0.0000E+00  0.6000E+01  0.6000E+01
    -38.114  0.0000E+00  0.0000E+00  0.6000E+01  0.6000E+01
    -37.931  0.0000E+00  0.0000E+00  0.6000E+01  0.6000E+01
    -37.748  0.0000E+00  0.0000E+00  0.6000E+01  0.6000E+01
    -37.565  0.0000E+00  0.0000E+00  0.6000E+01  0.6000E+01
    -37.383  0.0000E+00  0.0000E+00  0.6000E+01  0.6000E+01
    -37.200  0.0000E+00  0.0000E+00  0.6000E+01  0.6000E+01
    -37.017  0.0000E+00  0.0000E+00  0.6000E+01  0.6000E+01
    -36.834  0.0000E+00  0.0000E+00  0.6000E+01  0.6000E+01
    -36.652  0.0000E+00  0.0000E+00  0.6000E+01  0.6000E+01
    -36.469  0.0000E+00  0.0000E+00  0.6000E+01  0.6000E+01
    -36.286  0.0000E+00  0.0000E+00  0.6000E+01  0.6000E+01
    -36.104  0.0000E+00  0.0000E+00  0.6000E+01  0.6000E+01
    -35.921  0.0000E+00  0.0000E+00  0.6000E+01  0.6000E+01
    -35.738  0.0000E+00  0.0000E+00  0.6000E+01  0.6000E+01
    -35.555  0.0000E+00  0.0000E+00  0.6000E+01  0.6000E+01
    -35.373  0.0000E+00  0.0000E+00  0.6000E+01  0.6000E+01
    -35.190  0.0000E+00  0.0000E+00  0.6000E+01  0.6000E+01
    -35.007  0.0000E+00  0.0000E+00  0.6000E+01  0.6000E+01
    -34.824  0.0000E+00  0.0000E+00  0.6000E+01  0.6000E+01
    -34.642  0.0000E+00  0.0000E+00  0.6000E+01  0.6000E+01
    -34.459  0.0000E+00  0.0000E+00  0.6000E+01  0.6000E+01
    -34.276  0.0000E+00  0.0000E+00  0.6000E+01  0.6000E+01
    -34.094  0.0000E+00  0.0000E+00  0.6000E+01  0.6000E+01
    -33.911  0.0000E+00  0.0000E+00  0.6000E+01  0.6000E+01
    -33.728  0.0000E+00  0.0000E+00  0.6000E+01  0.6000E+01
    -33.545  0.0000E+00  0.0000E+00  0.6000E+01  0.6000E+01
    -33.363  0.0000E+00  0.0000E+00  0.6000E+01  0.6000E+01
    -33.180  0.0000E+00  0.0000E+00  0.6000E+01  0.6000E+01
    -32.997  0.0000E+00  0.0000E+00  0.6000E+01  0.6000E+01
    -32.814  0.0000E+00  0.0000E+00  0.6000E+01  0.6000E+01
    -32.632  0.0000E+00  0.0000E+00  0.6000E+01  0.6000E+01
    -32.449  0.0000E+00  0.0000E+00  0.6000E+01  0.6000E+01
    -32.266  0.0000E+00  0.0000E+00  0.6000E+01  0.6000E+01
    -32.084  0.0000E+00  0.0000E+00  0.6000E+01  0.6000E+01
    -31.901  0.0000E+00  0.0000E+00  0.6000E+01  0.6000E+01
    -31.718  0.0000E+00  0.0000E+00  0.6000E+01  0.6000E+01
    -31.535  0.0000E+00  0.0000E+00  0.6000E+01  0.6000E+01
    -31.353  0.0000E+00  0.0000E+00  0.6000E+01  0.6000E+01
    -31.170  0.0000E+00  0.0000E+00  0.6000E+01  0.6000E+01
    -30.987  0.0000E+00  0.0000E+00  0.6000E+01  0.6000E+01
    -30.804  0.0000E+00  0.0000E+00  0.6000E+01  0.6000E+01
    -30.622  0.0000E+00  0.0000E+00  0.6000E+01  0.6000E+01
    -30.439  0.0000E+00  0.0000E+00  0.6000E+01  0.6000E+01
    -30.256  0.0000E+00  0.0000E+00  0.6000E+01  0.6000E+01
    -30.074  0.0000E+00  0.0000E+00  0.6000E+01  0.6000E+01
    -29.891  0.0000E+00  0.0000E+00  0.6000E+01  0.6000E+01
    -29.708  0.0000E+00  0.0000E+00  0.6000E+01  0.6000E+01
    -29.525  0.0000E+00  0.0000E+00  0.6000E+01  0.6000E+01
    -29.343  0.0000E+00  0.0000E+00  0.6000E+01  0.6000E+01
    -29.160  0.1060E+00  0.1060E+00  0.6019E+01  0.6019E+01
    -28.977  0.0000E+00  0.0000E+00  0.8000E+01  0.8000E+01
    -28.794  0.0000E+00  0.0000E+00  0.8000E+01  0.8000E+01
    -28.612  0.0000E+00  0.0000E+00  0.8000E+01  0.8000E+01
    -28.429  0.0000E+00  0.0000E+00  0.8000E+01  0.8000E+01
    -28.246  0.0000E+00  0.0000E+00  0.8000E+01  0.8000E+01
    -28.064  0.0000E+00  0.0000E+00  0.8000E+01  0.8000E+01
    -27.881  0.0000E+00  0.0000E+00  0.8000E+01  0.8000E+01
    -27.698  0.0000E+00  0.0000E+00  0.8000E+01  0.8000E+01
    -27.515  0.0000E+00  0.0000E+00  0.8000E+01  0.8000E+01
    -27.333  0.1095E+02  0.1095E+02  0.1000E+02  0.1000E+02
    -27.150  0.0000E+00  0.0000E+00  0.1000E+02  0.1000E+02
    -26.967  0.0000E+00  0.0000E+00  0.1000E+02  0.1000E+02
    -26.784  0.1095E+02  0.1095E+02  0.1200E+02  0.1200E+02
    -26.602  0.2795E-13  0.2795E-13  0.1200E+02  0.1200E+02
    -26.419  0.0000E+00  0.0000E+00  0.1400E+02  0.1400E+02
    -26.236  0.5530E-09  0.5530E-09  0.1400E+02  0.1400E+02
    -26.054  0.1095E+02  0.1095E+02  0.1800E+02  0.1800E+02
    -25.871  0.0000E+00  0.0000E+00  0.1800E+02  0.1800E+02
    -25.688  0.0000E+00  0.0000E+00  0.1800E+02  0.1800E+02
    -25.505  0.0000E+00  0.0000E+00  0.1800E+02  0.1800E+02
    -25.323  0.0000E+00  0.0000E+00  0.1800E+02  0.1800E+02
    -25.140  0.0000E+00  0.0000E+00  0.1800E+02  0.1800E+02
    -24.957  0.0000E+00  0.0000E+00  0.1800E+02  0.1800E+02
    -24.774  0.0000E+00  0.0000E+00  0.1800E+02  0.1800E+02
    -24.592  0.0000E+00  0.0000E+00  0.1800E+02  0.1800E+02
    -24.409  0.0000E+00  0.0000E+00  0.1800E+02  0.1800E+02
    -24.226  0.0000E+00  0.0000E+00  0.1800E+02  0.1800E+02
    -24.044  0.0000E+00  0.0000E+00  0.2000E+02  0.2000E+02
    -23.861  0.0000E+00  0.0000E+00  0.2000E+02  0.2000E+02
    -23.678  0.0000E+00  0.0000E+00  0.2000E+02  0.2000E+02
    -23.495  0.0000E+00  0.0000E+00  0.2000E+02  0.2000E+02
    -23.313  0.0000E+00  0.0000E+00  0.2000E+02  0.2000E+02
    -23.130  0.0000E+00  0.0000E+00  0.2000E+02  0.2000E+02
    -22.947  0.0000E+00  0.0000E+00  0.2000E+02  0.2000E+02
    -22.764  0.0000E+00  0.0000E+00  0.2200E+02  0.2200E+02
    -22.582  0.0000E+00  0.0000E+00  0.2200E+02  0.2200E+02
    -22.399  0.1094E+02  0.1094E+02  0.2600E+02  0.2600E+02
    -22.216  0.4729E-01  0.4729E-01  0.2801E+02  0.2801E+02
    -22.034  0.1094E+02  0.1094E+02  0.3200E+02  0.3200E+02
    -21.851  0.0000E+00  0.0000E+00  0.3200E+02  0.3200E+02
    -21.668  0.0000E+00  0.0000E+00  0.3200E+02  0.3200E+02
    -21.485  0.0000E+00  0.0000E+00  0.3200E+02  0.3200E+02
    -21.303  0.1095E+02  0.1095E+02  0.3400E+02  0.3400E+02
    -21.120  0.1068E+02  0.1068E+02  0.3595E+02  0.3595E+02
    -20.937  0.0000E+00  0.0000E+00  0.3600E+02  0.3600E+02
    -20.754  0.1095E+02  0.1095E+02  0.3800E+02  0.3800E+02
    -20.572  0.0000E+00  0.0000E+00  0.3800E+02  0.3800E+02
    -20.389  0.0000E+00  0.0000E+00  0.3800E+02  0.3800E+02
    -20.206  0.0000E+00  0.0000E+00  0.3800E+02  0.3800E+02
    -20.024  0.0000E+00  0.0000E+00  0.3800E+02  0.3800E+02
    -19.841  0.0000E+00  0.0000E+00  0.3800E+02  0.3800E+02
    -19.658  0.0000E+00  0.0000E+00  0.3800E+02  0.3800E+02
    -19.475  0.7266E-01  0.7266E-01  0.3801E+02  0.3801E+02
    -19.293  0.0000E+00  0.0000E+00  0.4200E+02  0.4200E+02
    -19.110  0.0000E+00  0.0000E+00  0.4200E+02  0.4200E+02
    -18.927  0.0000E+00  0.0000E+00  0.4200E+02  0.4200E+02
    -18.744  0.7450E-06  0.7450E-06  0.4200E+02  0.4200E+02
    -18.562  0.0000E+00  0.0000E+00  0.4400E+02  0.4400E+02
    -18.379  0.1095E+02  0.1095E+02  0.4600E+02  0.4600E+02
    -18.196  0.0000E+00  0.0000E+00  0.4600E+02  0.4600E+02
    -18.014  0.3295E-06  0.3295E-06  0.4800E+02  0.4800E+02
    -17.831  0.1067E+02  0.1067E+02  0.5195E+02  0.5195E+02
    -17.648  0.8323E+01  0.8323E+01  0.5352E+02  0.5352E+02
    -17.465  0.0000E+00  0.0000E+00  0.5600E+02  0.5600E+02
    -17.283  0.1027E+02  0.1027E+02  0.5788E+02  0.5788E+02
    -17.100  0.0000E+00  0.0000E+00  0.5800E+02  0.5800E+02
    -16.917  0.0000E+00  0.0000E+00  0.5800E+02  0.5800E+02
    -16.734  0.0000E+00  0.0000E+00  0.6000E+02  0.6000E+02
    -16.552  0.1058E+02  0.1058E+02  0.6193E+02  0.6193E+02
    -16.369  0.0000E+00  0.0000E+00  0.6200E+02  0.6200E+02
    -16.186  0.0000E+00  0.0000E+00  0.6200E+02  0.6200E+02
    -16.004  0.0000E+00  0.0000E+00  0.6200E+02  0.6200E+02
    -15.821  0.1095E+02  0.1095E+02  0.6400E+02  0.6400E+02
    -15.638  0.1095E+02  0.1095E+02  0.6600E+02  0.6600E+02
    -15.455  0.0000E+00  0.0000E+00  0.6600E+02  0.6600E+02
    -15.273  0.1708E+00  0.1708E+00  0.6803E+02  0.6803E+02
    -15.090  0.0000E+00  0.0000E+00  0.7000E+02  0.7000E+02
    -14.907  0.0000E+00  0.0000E+00  0.7000E+02  0.7000E+02
    -14.724  0.1148E+02  0.1148E+02  0.7210E+02  0.7210E+02
    -14.542  0.0000E+00  0.0000E+00  0.7600E+02  0.7600E+02
    -14.359  0.0000E+00  0.0000E+00  0.7600E+02  0.7600E+02
    -14.176  0.0000E+00  0.0000E+00  0.7800E+02  0.7800E+02
    -13.994  0.2189E+02  0.2189E+02  0.8400E+02  0.8400E+02
    -13.811  0.1047E+02  0.1047E+02  0.8791E+02  0.8791E+02
    -13.628  0.2167E-05  0.2167E-05  0.9000E+02  0.9000E+02
    -13.445  0.1080E+02  0.1080E+02  0.9397E+02  0.9397E+02
    -13.263  0.8874E-07  0.8874E-07  0.9600E+02  0.9600E+02
    -13.080  0.0000E+00  0.0000E+00  0.1000E+03  0.1000E+03
    -12.897  0.7995E+00  0.7995E+00  0.1001E+03  0.1001E+03
    -12.714  0.1098E+02  0.1098E+02  0.1060E+03  0.1060E+03
    -12.532  0.1095E+02  0.1095E+02  0.1100E+03  0.1100E+03
    -12.349  0.7871E-04  0.7871E-04  0.1120E+03  0.1120E+03
    -12.166  0.1095E+02  0.1095E+02  0.1180E+03  0.1180E+03
    -11.984  0.1095E+02  0.1095E+02  0.1200E+03  0.1200E+03
    -11.801  0.0000E+00  0.0000E+00  0.1200E+03  0.1200E+03
    -11.618  0.0000E+00  0.0000E+00  0.1200E+03  0.1200E+03
    -11.435  0.1094E+02  0.1094E+02  0.1220E+03  0.1220E+03
    -11.253  0.1095E+02  0.1095E+02  0.1260E+03  0.1260E+03
    -11.070  0.2162E+02  0.2162E+02  0.1320E+03  0.1320E+03
    -10.887  0.0000E+00  0.0000E+00  0.1320E+03  0.1320E+03
    -10.704  0.1095E+02  0.1095E+02  0.1340E+03  0.1340E+03
    -10.522  0.7687E+01  0.7687E+01  0.1374E+03  0.1374E+03
    -10.339  0.0000E+00  0.0000E+00  0.1380E+03  0.1380E+03
    -10.156  0.0000E+00  0.0000E+00  0.1400E+03  0.1400E+03
     -9.974  0.1095E+02  0.1095E+02  0.1440E+03  0.1440E+03
     -9.791  0.1087E+02  0.1087E+02  0.1460E+03  0.1460E+03
     -9.608  0.1674E-05  0.1674E-05  0.1500E+03  0.1500E+03
     -9.425  0.1095E+02  0.1095E+02  0.1540E+03  0.1540E+03
     -9.243  0.0000E+00  0.0000E+00  0.1540E+03  0.1540E+03
     -9.060  0.0000E+00  0.0000E+00  0.1540E+03  0.1540E+03
     -8.877  0.2814E-03  0.2814E-03  0.1540E+03  0.1540E+03
     -8.694  0.1095E+02  0.1095E+02  0.1580E+03  0.1580E+03
     -8.512  0.0000E+00  0.0000E+00  0.1580E+03  0.1580E+03
     -8.329  0.1095E+02  0.1095E+02  0.1600E+03  0.1600E+03
     -8.146  0.0000E+00  0.0000E+00  0.1600E+03  0.1600E+03
     -7.964  0.0000E+00  0.0000E+00  0.1600E+03  0.1600E+03
     -7.781  0.0000E+00  0.0000E+00  0.1600E+03  0.1600E+03
     -7.598  0.0000E+00  0.0000E+00  0.1600E+03  0.1600E+03
     -7.415  0.1095E+02  0.1095E+02  0.1620E+03  0.1620E+03
     -7.233  0.1095E+02  0.1095E+02  0.1640E+03  0.1640E+03
     -7.050  0.0000E+00  0.0000E+00  0.1660E+03  0.1660E+03
     -6.867  0.0000E+00  0.0000E+00  0.1660E+03  0.1660E+03
     -6.684  0.0000E+00  0.0000E+00  0.1660E+03  0.1660E+03
     -6.502  0.0000E+00  0.0000E+00  0.1660E+03  0.1660E+03
     -6.319  0.0000E+00  0.0000E+00  0.1660E+03  0.1660E+03
     -6.136  0.0000E+00  0.0000E+00  0.1660E+03  0.1660E+03
     -5.954  0.0000E+00  0.0000E+00  0.1660E+03  0.1660E+03
     -5.771  0.0000E+00  0.0000E+00  0.1660E+03  0.1660E+03
     -5.588  0.1095E+02  0.1095E+02  0.1680E+03  0.1680E+03
     -5.405  0.0000E+00  0.0000E+00  0.1680E+03  0.1680E+03
     -5.223  0.0000E+00  0.0000E+00  0.1680E+03  0.1680E+03
     -5.040  0.1095E+02  0.1095E+02  0.1700E+03  0.1700E+03
     -4.857  0.0000E+00  0.0000E+00  0.1720E+03  0.1720E+03
     -4.674  0.0000E+00  0.0000E+00  0.1720E+03  0.1720E+03
     -4.492  0.0000E+00  0.0000E+00  0.1720E+03  0.1720E+03
     -4.309  0.1095E+02  0.1095E+02  0.1740E+03  0.1740E+03
     -4.126  0.1086E+02  0.1086E+02  0.1760E+03  0.1760E+03
     -3.943  0.1094E+02  0.1094E+02  0.1800E+03  0.1800E+03
     -3.761  0.0000E+00  0.0000E+00  0.1820E+03  0.1820E+03
     -3.578  0.0000E+00  0.0000E+00  0.1820E+03  0.1820E+03
     -3.395  0.0000E+00  0.0000E+00  0.1840E+03  0.1840E+03
     -3.213  0.1097E+02  0.1097E+02  0.1860E+03  0.1860E+03
     -3.030  0.0000E+00  0.0000E+00  0.1880E+03  0.1880E+03
     -2.847  0.2131E+00  0.2131E+00  0.1880E+03  0.1880E+03
     -2.664  0.1095E+02  0.1095E+02  0.1920E+03  0.1920E+03
     -2.482  0.0000E+00  0.0000E+00  0.1920E+03  0.1920E+03
     -2.299  0.0000E+00  0.0000E+00  0.1920E+03  0.1920E+03
     -2.116  0.0000E+00  0.0000E+00  0.1920E+03  0.1920E+03
     -1.933  0.1095E+02  0.1095E+02  0.1940E+03  0.1940E+03
     -1.751  0.0000E+00  0.0000E+00  0.1940E+03  0.1940E+03
     -1.568  0.1095E+02  0.1095E+02  0.1960E+03  0.1960E+03
     -1.385  0.1084E+02  0.1084E+02  0.2000E+03  0.2000E+03
     -1.203  0.2193E+02  0.2193E+02  0.2040E+03  0.2040E+03
     -1.020  0.2098E-07  0.2096E-07  0.2060E+03  0.2060E+03
     -0.837  0.1095E+02  0.1095E+02  0.2100E+03  0.2100E+03
     -0.654  0.1094E+02  0.1094E+02  0.2140E+03  0.2140E+03
     -0.472  0.2187E+02  0.2187E+02  0.2200E+03  0.2200E+03
     -0.289  0.1095E+02  0.1095E+02  0.2240E+03  0.2240E+03
     -0.106  0.1095E+02  0.1095E+02  0.2280E+03  0.2280E+03
      0.077  0.1080E+02  0.1080E+02  0.2320E+03  0.2320E+03
      0.259  0.2169E+02  0.2169E+02  0.2380E+03  0.2380E+03
      0.442  0.2539E+02  0.2538E+02  0.2466E+03  0.2466E+03
      0.625  0.2103E+02  0.2102E+02  0.2518E+03  0.2518E+03
      0.807  0.0000E+00  0.0000E+00  0.2560E+03  0.2560E+03
      0.990  0.0000E+00  0.0000E+00  0.2560E+03  0.2560E+03
      1.173  0.0000E+00  0.0000E+00  0.2560E+03  0.2560E+03
      1.356  0.0000E+00  0.0000E+00  0.2560E+03  0.2560E+03
      1.538  0.0000E+00  0.0000E+00  0.2560E+03  0.2560E+03
      1.721  0.0000E+00  0.0000E+00  0.2560E+03  0.2560E+03
      1.904  0.0000E+00  0.0000E+00  0.2560E+03  0.2560E+03
      2.087  0.0000E+00  0.0000E+00  0.2560E+03  0.2560E+03
      2.269  0.0000E+00  0.0000E+00  0.2560E+03  0.2560E+03
      2.452  0.0000E+00  0.0000E+00  0.2560E+03  0.2560E+03
      2.635  0.0000E+00  0.0000E+00  0.2560E+03  0.2560E+03
      2.817  0.0000E+00  0.0000E+00  0.2560E+03  0.2560E+03
      3.000  0.0000E+00  0.0000E+00  0.2560E+03  0.2560E+03
      3.183  0.0000E+00  0.0000E+00  0.2560E+03  0.2560E+03
