   55   55    1    2
  0.1454545E+03  0.2000000E-08  0.2000000E-08  0.2000000E-08  0.5000000E-15
  1.000000000000000E-004
  CAR 
 c2_oh2_ruthenium_mol                    
    166      1    128
 
  0.0000000E+00  0.0000000E+00  0.0000000E+00  0.1000000E+01
    1      -49.143639    -49.143638
    2      -49.002565    -49.002565
    3      -48.788735    -48.788735
    4      -29.143359    -29.143359
    5      -27.401604    -27.401604
    6      -26.823655    -26.823656
    7      -26.546384    -26.546384
    8      -26.190537    -26.190537
    9      -26.129256    -26.129256
   10      -24.159543    -24.159543
   11      -22.879758    -22.879758
   12      -22.503722    -22.503722
   13      -22.421266    -22.421266
   14      -22.299157    -22.299157
   15      -22.197681    -22.197681
   16      -22.061705    -22.061705
   17      -21.357635    -21.357635
   18      -21.133878    -21.133878
   19      -20.784124    -20.784124
   20      -19.457827    -19.457827
   21      -19.399334    -19.399334
   22      -18.707159    -18.707159
   23      -18.442336    -18.442336
   24      -18.127039    -18.127039
   25      -17.975204    -17.975204
   26      -17.844666    -17.844666
   27      -17.653066    -17.653066
   28      -17.592251    -17.592251
   29      -17.293527    -17.293527
   30      -16.820760    -16.820760
   31      -16.564674    -16.564675
   32      -15.849560    -15.849560
   33      -15.710907    -15.710907
   34      -15.369753    -15.369753
   35      -15.257370    -15.257370
   36      -14.752951    -14.752951
   37      -14.712715    -14.712715
   38      -14.667000    -14.667000
   39      -14.283885    -14.283885
   40      -14.101759    -14.101759
   41      -14.045201    -14.045201
   42      -14.021558    -14.021558
   43      -13.966823    -13.966823
   44      -13.822883    -13.822883
   45      -13.765879    -13.765879
   46      -13.592200    -13.592200
   47      -13.461088    -13.461088
   48      -13.365144    -13.365144
   49      -13.222663    -13.222663
   50      -13.165643    -13.165643
   51      -12.886869    -12.886869
   52      -12.824194    -12.824193
   53      -12.759879    -12.759879
   54      -12.695108    -12.695107
   55      -12.566002    -12.566002
   56      -12.448863    -12.448863
   57      -12.318290    -12.318290
   58      -12.306612    -12.306612
   59      -12.220319    -12.220319
   60      -12.052772    -12.052772
   61      -11.459452    -11.459451
   62      -11.405732    -11.405732
   63      -11.305251    -11.305251
   64      -11.206558    -11.206558
   65      -11.104347    -11.104347
   66      -11.083818    -11.083818
   67      -10.766258    -10.766258
   68      -10.664076    -10.664076
   69      -10.525444    -10.525444
   70      -10.276767    -10.276767
   71      -10.091697    -10.091697
   72      -10.047218    -10.047218
   73       -9.808365     -9.808365
   74       -9.746885     -9.746885
   75       -9.710245     -9.710245
   76       -9.571849     -9.571849
   77       -9.484077     -9.484077
   78       -8.848510     -8.848510
   79       -8.758671     -8.758671
   80       -8.377626     -8.377626
   81       -7.487892     -7.487891
   82       -7.308140     -7.308139
   83       -7.162311     -7.162311
   84       -5.655242     -5.655242
   85       -5.071944     -5.071944
   86       -5.000598     -5.000598
   87       -4.351493     -4.351493
   88       -4.143440     -4.143440
   89       -4.097675     -4.097675
   90       -3.969018     -3.969018
   91       -3.843346     -3.843346
   92       -3.507350     -3.507350
   93       -3.282784     -3.282784
   94       -3.192284     -3.192284
   95       -2.832534     -2.832534
   96       -2.725229     -2.725229
   97       -1.996725     -1.996724
   98       -1.647578     -1.647578
   99       -1.541010     -1.541010
  100       -1.401945     -1.401943
  101       -1.280139     -1.280139
  102       -1.223556     -1.223557
  103       -1.184339     -1.184338
  104       -0.978201     -0.978201
  105       -0.894759     -0.894759
  106       -0.797363     -0.797362
  107       -0.679292     -0.679292
  108       -0.584179     -0.584179
  109       -0.509937     -0.509937
  110       -0.492728     -0.492727
  111       -0.387314     -0.387312
  112       -0.345918     -0.345917
  113       -0.256243     -0.256243
  114       -0.175915     -0.175911
  115       -0.053552     -0.053551
  116        0.060760      0.060760
  117        0.123206      0.123209
  118        0.193471      0.193473
  119        0.244456      0.244456
  120        0.290513      0.290515
  121        0.334310      0.334312
  122        0.366652      0.366654
  123        0.405574      0.405574
  124        0.445282      0.445283
  125        0.550984      0.550986
  126        0.614708      0.614713
  127        0.653989      0.653995
  128        0.691135      0.691029
