       N       E                     dE             d eps       ncg     rms          rms(c)
DAV:   1     0.909352635480E+03    0.90935E+03   -0.58811E+04   768   0.974E+02
DAV:   2    -0.674391640299E+02   -0.97679E+03   -0.97036E+03  1024   0.159E+02
DAV:   3    -0.393342404746E+03   -0.32590E+03   -0.32547E+03   832   0.849E+01
DAV:   4    -0.412318201008E+03   -0.18976E+02   -0.18953E+02   640   0.259E+01
DAV:   5    -0.412581902065E+03   -0.26370E+00   -0.26360E+00   896   0.318E+00    0.572E+01
DAV:   6    -0.393293790370E+03    0.19288E+02   -0.34602E+02   512   0.232E+01    0.385E+01
DAV:   7    -0.382908197204E+03    0.10386E+02   -0.23924E+01   768   0.206E+01    0.235E+01
DAV:   8    -0.378832755195E+03    0.40754E+01   -0.17330E+01   768   0.957E+00    0.951E+00
DAV:   9    -0.377674453938E+03    0.11583E+01   -0.65192E+00   768   0.494E+00    0.359E+00
DAV:  10    -0.377644908501E+03    0.29545E-01   -0.31309E-01   768   0.138E+00    0.258E+00
DAV:  11    -0.377502919096E+03    0.14199E+00   -0.18612E-01   896   0.101E+00    0.106E+00
DAV:  12    -0.377434399841E+03    0.68519E-01   -0.93832E-02   768   0.681E-01    0.671E-01
DAV:  13    -0.377411620990E+03    0.22779E-01   -0.21220E-02   768   0.410E-01    0.475E-01
DAV:  14    -0.377403991938E+03    0.76291E-02   -0.12373E-02   768   0.290E-01    0.292E-01
DAV:  15    -0.377407356148E+03   -0.33642E-02   -0.57648E-03   768   0.212E-01    0.209E-01
DAV:  16    -0.377417157388E+03   -0.98012E-02   -0.24884E-03   768   0.150E-01    0.993E-02
DAV:  17    -0.377423616937E+03   -0.64595E-02   -0.10957E-03   768   0.956E-02    0.767E-02
DAV:  18    -0.377429451770E+03   -0.58348E-02   -0.53557E-04   768   0.692E-02    0.421E-02
DAV:  19    -0.377431708854E+03   -0.22571E-02   -0.12819E-04   768   0.342E-02    0.311E-02
DAV:  20    -0.377433560195E+03   -0.18513E-02   -0.50424E-05   768   0.226E-02    0.215E-02
DAV:  21    -0.377435442721E+03   -0.18825E-02   -0.70261E-05   768   0.218E-02    0.112E-02
DAV:  22    -0.377436080223E+03   -0.63750E-03   -0.16272E-05   768   0.998E-03    0.947E-03
DAV:  23    -0.377436606231E+03   -0.52601E-03   -0.94193E-06   640   0.703E-03    0.463E-03
DAV:  24    -0.377436939873E+03   -0.33364E-03   -0.86790E-06   640   0.590E-03    0.292E-03
DAV:  25    -0.377437068807E+03   -0.12893E-03   -0.17655E-06   640   0.281E-03    0.203E-03
DAV:  26    -0.377437206090E+03   -0.13728E-03   -0.28462E-06   640   0.301E-03    0.129E-03
DAV:  27    -0.377437250213E+03   -0.44123E-04   -0.54360E-07   640   0.145E-03    0.801E-04
DAV:  28    -0.377437282162E+03   -0.31949E-04   -0.37895E-07   640   0.119E-03    0.513E-04
DAV:  29    -0.377437294243E+03   -0.12082E-04   -0.23905E-08   640   0.667E-04    0.324E-04
DAV:  30    -0.377437302770E+03   -0.85265E-05    0.32006E-08   640   0.500E-04
   1 F= -.37743730E+03 E0= -.37743730E+03  d E =-.144736-110  mag=     0.0000
