 vasp.5.3.5 31Mar14 (build Apr 08 2014 12:00:03) complex                        
  
 VASP binary ID code NSC-NSCPATCH-BUILD02 date 2017.03.15  19:01:24
 running on   64 total cores
 distrk:  each k-point on   64 cores,    1 groups
 distr:  one band on NCORES_PER_BAND=   1 cores,   64 groups


--------------------------------------------------------------------------------------------------------


 INCAR:
 POTCAR:    PAW_PBE C_h 06Feb2004                 
 POTCAR:    PAW_PBE C_h 06Feb2004                 
 POTCAR:    PAW_PBE H 15Jun2001                   
 POTCAR:    PAW_PBE N_h 06Feb2004                 
 POTCAR:    PAW_PBE O_h 06Feb2004                 
 POTCAR:    PAW_PBE Ru_pv 28Jan2005               

 ----------------------------------------------------------------------------- 
|                                                                             |
|           W    W    AA    RRRRR   N    N  II  N    N   GGGG   !!!           |
|           W    W   A  A   R    R  NN   N  II  NN   N  G    G  !!!           |
|           W    W  A    A  R    R  N N  N  II  N N  N  G       !!!           |
|           W WW W  AAAAAA  RRRRR   N  N N  II  N  N N  G  GGG   !            |
|           WW  WW  A    A  R   R   N   NN  II  N   NN  G    G                |
|           W    W  A    A  R    R  N    N  II  N    N   GGGG   !!!           |
|                                                                             |
|      For optimal performance we recommend to set                            |
|        NCORE= 4 - approx SQRT( number of cores)                             |
|      NCORE specifies how many cores store one orbital (NPAR=cpu/NCORE).     |
|      This setting can  greatly improve the performance of VASP for DFT.     |
|      The default, NPAR=number of cores might be grossly inefficient         |
|      on modern multi-core architectures or massively parallel machines.     |
|      Do your own testing !!!!                                               |
|      Unfortunately you need to use the default for GW and RPA calculations. |
|      (for HF NCORE is supported but not extensively tested yet)             |
|                                                                             |
 ----------------------------------------------------------------------------- 

 POTCAR:    PAW_PBE C_h 06Feb2004                 
   VRHFIN =C: s2p2                                                              
   LEXCH  = PE                                                                  
   EATOM  =   147.1560 eV,   10.8157 Ry                                         
                                                                                
   TITEL  = PAW_PBE C_h 06Feb2004                                               
   LULTRA =        F    use ultrasoft PP ?                                      
   IUNSCR =        1    unscreen: 0-lin 1-nonlin 2-no                           
   RPACOR =    0.800    partial core radius                                     
   POMASS =   12.011; ZVAL   =    4.000    mass and valenz                      
   RCORE  =    1.100    outmost cutoff radius                                   
   RWIGS  =    1.630; RWIGS  =    0.863    wigner-seitz radius (au A)           
   ENMAX  =  700.000; ENMIN  =  500.000 eV                                      
   ICORE  =        2    local potential                                         
   LCOR   =        T    correct aug charges                                     
   LPAW   =        T    paw PP                                                  
   EAUG   =  946.768                                                            
   DEXC   =    0.000                                                            
   RMAX   =    1.128    core radius for proj-oper                               
   RAUG   =    1.300    factor for augmentation sphere                          
   RDEP   =    1.162    radius for radial grids                                 
   RDEPT  =    1.088    core radius for aug-charge                              
                                                                                
   Atomic configuration                                                         
    4 entries                                                                   
     n  l   j            E        occ.                                          
     1  0  0.50      -273.3789   2.0000                                         
     2  0  0.50       -13.7508   2.0000                                         
     2  1  0.50        -5.2854   2.0000                                         
     3  2  1.50        -5.4423   0.0000                                         
   Description                                                                  
     l       E           TYP  RCUT    TYP  RCUT                                 
     0    -13.7508458     23  1.100                                             
     0     -8.2022199     23  1.100                                             
     1     -5.2854383     23  1.100                                             
     1      1.1560700     23  1.100                                             
     2     -5.4423304      7  1.100                                             
  local pseudopotential read in
  partial core-charges read in
  partial kinetic energy density read in
  atomic valenz-charges read in
  non local Contribution for L=           0  read in
    real space projection operators read in
  non local Contribution for L=           0  read in
    real space projection operators read in
  non local Contribution for L=           1  read in
    real space projection operators read in
  non local Contribution for L=           1  read in
    real space projection operators read in
    PAW grid and wavefunctions read in
 
   number of l-projection  operators is LMAX  =           4
   number of lm-projection operators is LMMAX =           8
 
 POTCAR:    PAW_PBE C_h 06Feb2004                 
   VRHFIN =C: s2p2                                                              
   LEXCH  = PE                                                                  
   EATOM  =   147.1560 eV,   10.8157 Ry                                         
                                                                                
   TITEL  = PAW_PBE C_h 06Feb2004                                               
   LULTRA =        F    use ultrasoft PP ?                                      
   IUNSCR =        1    unscreen: 0-lin 1-nonlin 2-no                           
   RPACOR =    0.800    partial core radius                                     
   POMASS =   12.011; ZVAL   =    4.000    mass and valenz                      
   RCORE  =    1.100    outmost cutoff radius                                   
   RWIGS  =    1.630; RWIGS  =    0.863    wigner-seitz radius (au A)           
   ENMAX  =  700.000; ENMIN  =  500.000 eV                                      
   ICORE  =        2    local potential                                         
   LCOR   =        T    correct aug charges                                     
   LPAW   =        T    paw PP                                                  
   EAUG   =  946.768                                                            
   DEXC   =    0.000                                                            
   RMAX   =    1.128    core radius for proj-oper                               
   RAUG   =    1.300    factor for augmentation sphere                          
   RDEP   =    1.162    radius for radial grids                                 
   RDEPT  =    1.088    core radius for aug-charge                              
                                                                                
   Atomic configuration                                                         
    4 entries                                                                   
     n  l   j            E        occ.                                          
     1  0  0.50      -273.3789   2.0000                                         
     2  0  0.50       -13.7508   2.0000                                         
     2  1  0.50        -5.2854   2.0000                                         
     3  2  1.50        -5.4423   0.0000                                         
   Description                                                                  
     l       E           TYP  RCUT    TYP  RCUT                                 
     0    -13.7508458     23  1.100                                             
     0     -8.2022199     23  1.100                                             
     1     -5.2854383     23  1.100                                             
     1      1.1560700     23  1.100                                             
     2     -5.4423304      7  1.100                                             
  local pseudopotential read in
  partial core-charges read in
  partial kinetic energy density read in
  atomic valenz-charges read in
  non local Contribution for L=           0  read in
    real space projection operators read in
  non local Contribution for L=           0  read in
    real space projection operators read in
  non local Contribution for L=           1  read in
    real space projection operators read in
  non local Contribution for L=           1  read in
    real space projection operators read in
    PAW grid and wavefunctions read in
 
   number of l-projection  operators is LMAX  =           4
   number of lm-projection operators is LMMAX =           8
 
 POTCAR:    PAW_PBE H 15Jun2001                   
   VRHFIN =H: ultrasoft test                                                    
   LEXCH  = PE                                                                  
   EATOM  =    12.4884 eV,    0.9179 Ry                                         
                                                                                
   TITEL  = PAW_PBE H 15Jun2001                                                 
   LULTRA =        F    use ultrasoft PP ?                                      
   IUNSCR =        0    unscreen: 0-lin 1-nonlin 2-no                           
   RPACOR =    0.000    partial core radius                                     
   POMASS =    1.000; ZVAL   =    1.000    mass and valenz                      
   RCORE  =    1.100    outmost cutoff radius                                   
   RWIGS  =    0.700; RWIGS  =    0.370    wigner-seitz radius (au A)           
   ENMAX  =  250.000; ENMIN  =  200.000 eV                                      
   RCLOC  =    0.701    cutoff for local pot                                    
   LCOR   =        T    correct aug charges                                     
   LPAW   =        T    paw PP                                                  
   EAUG   =  400.000                                                            
   RMAX   =    1.123    core radius for proj-oper                               
   RAUG   =    1.200    factor for augmentation sphere                          
   RDEP   =    1.112    radius for radial grids                                 
   RDEPT  =    0.926    core radius for aug-charge                              
                                                                                
   Atomic configuration                                                         
    2 entries                                                                   
     n  l   j            E        occ.                                          
     1  0  0.50        -6.4927   1.0000                                         
     2  1  0.50        -3.4015   0.0000                                         
   Description                                                                  
     l       E           TYP  RCUT    TYP  RCUT                                 
     0     -6.4927494     23  1.100                                             
     0      6.8029130     23  1.100                                             
     1     -4.0817478     23  1.100                                             
  local pseudopotential read in
  atomic valenz-charges read in
  non local Contribution for L=           0  read in
    real space projection operators read in
  non local Contribution for L=           0  read in
    real space projection operators read in
  non local Contribution for L=           1  read in
    real space projection operators read in
    PAW grid and wavefunctions read in
 
   number of l-projection  operators is LMAX  =           3
   number of lm-projection operators is LMMAX =           5
 
 POTCAR:    PAW_PBE N_h 06Feb2004                 
   VRHFIN =N: s2p3                                                              
   LEXCH  = PE                                                                  
   EATOM  =   264.5486 eV,   19.4438 Ry                                         
                                                                                
   TITEL  = PAW_PBE N_h 06Feb2004                                               
   LULTRA =        F    use ultrasoft PP ?                                      
   IUNSCR =        1    unscreen: 0-lin 1-nonlin 2-no                           
   RPACOR =    0.800    partial core radius                                     
   POMASS =   14.001; ZVAL   =    5.000    mass and valenz                      
   RCORE  =    1.100    outmost cutoff radius                                   
   RWIGS  =    1.480; RWIGS  =    0.783    wigner-seitz radius (au A)           
   ENMAX  =  700.000; ENMIN  =  500.000 eV                                      
   ICORE  =        2    local potential                                         
   LCOR   =        T    correct aug charges                                     
   LPAW   =        T    paw PP                                                  
   EAUG   =  904.640                                                            
   DEXC   =    0.000                                                            
   RMAX   =    1.127    core radius for proj-oper                               
   RAUG   =    1.300    factor for augmentation sphere                          
   RDEP   =    1.115    radius for radial grids                                 
   RDEPT  =    1.106    core radius for aug-charge                              
                                                                                
   Atomic configuration                                                         
    4 entries                                                                   
     n  l   j            E        occ.                                          
     1  0  0.50      -384.7179   2.0000                                         
     2  0  0.50       -18.5828   2.0000                                         
     2  1  0.50        -7.0898   3.0000                                         
     3  2  1.50        -6.8029   0.0000                                         
   Description                                                                  
     l       E           TYP  RCUT    TYP  RCUT                                 
     0    -18.5828117     23  1.100                                             
     0    -15.0750597     23  1.100                                             
     1     -7.0897851     23  1.100                                             
     1     -1.9663412     23  1.100                                             
     2     -6.8029130      7  1.100                                             
  local pseudopotential read in
  partial core-charges read in
  partial kinetic energy density read in
  kinetic energy density of atom read in
  atomic valenz-charges read in
  non local Contribution for L=           0  read in
    real space projection operators read in
  non local Contribution for L=           0  read in
    real space projection operators read in
  non local Contribution for L=           1  read in
    real space projection operators read in
  non local Contribution for L=           1  read in
    real space projection operators read in
    PAW grid and wavefunctions read in
 
   number of l-projection  operators is LMAX  =           4
   number of lm-projection operators is LMMAX =           8
 
 POTCAR:    PAW_PBE O_h 06Feb2004                 
   VRHFIN =O: s2p4                                                              
   LEXCH  = PE                                                                  
   EATOM  =   432.3788 eV,   31.7789 Ry                                         
                                                                                
   TITEL  = PAW_PBE O_h 06Feb2004                                               
   LULTRA =        F    use ultrasoft PP ?                                      
   IUNSCR =        1    unscreen: 0-lin 1-nonlin 2-no                           
   RPACOR =    0.800    partial core radius                                     
   POMASS =   16.000; ZVAL   =    6.000    mass and valenz                      
   RCORE  =    1.100    outmost cutoff radius                                   
   RWIGS  =    1.400; RWIGS  =    0.741    wigner-seitz radius (au A)           
   ENMAX  =  700.000; ENMIN  =  500.000 eV                                      
   ICORE  =        2    local potential                                         
   LCOR   =        T    correct aug charges                                     
   LPAW   =        T    paw PP                                                  
   EAUG   =  888.804                                                            
   DEXC   =    0.000                                                            
   RMAX   =    1.128    core radius for proj-oper                               
   RAUG   =    1.300    factor for augmentation sphere                          
   RDEP   =    1.125    radius for radial grids                                 
   RDEPT  =    1.088    core radius for aug-charge                              
                                                                                
   Atomic configuration                                                         
    4 entries                                                                   
     n  l   j            E        occ.                                          
     1  0  0.50      -514.6923   2.0000                                         
     2  0  0.50       -23.9615   2.0000                                         
     2  1  0.50        -9.0305   4.0000                                         
     3  2  1.50        -9.5241   0.0000                                         
   Description                                                                  
     l       E           TYP  RCUT    TYP  RCUT                                 
     0    -23.9615319     23  1.100                                             
     0    -25.3221145     23  1.100                                             
     1     -9.0304911     23  1.100                                             
     1     -5.4802209     23  1.100                                             
     2     -9.5240782      7  1.100                                             
  local pseudopotential read in
  partial core-charges read in
  partial kinetic energy density read in
  atomic valenz-charges read in
  non local Contribution for L=           0  read in
    real space projection operators read in
  non local Contribution for L=           0  read in
    real space projection operators read in
  non local Contribution for L=           1  read in
    real space projection operators read in
  non local Contribution for L=           1  read in
    real space projection operators read in
    PAW grid and wavefunctions read in
 
   number of l-projection  operators is LMAX  =           4
   number of lm-projection operators is LMMAX =           8
 
 POTCAR:    PAW_PBE Ru_pv 28Jan2005               
   VRHFIN =Ru: 4p5s4d                                                           
   LEXCH  = PE                                                                  
   EATOM  =  1873.4746 eV,  137.6965 Ry                                         
                                                                                
   TITEL  = PAW_PBE Ru_pv 28Jan2005                                             
   LULTRA =        F    use ultrasoft PP ?                                      
   IUNSCR =        1    unscreen: 0-lin 1-nonlin 2-no                           
   RPACOR =    2.170    partial core radius                                     
   POMASS =  101.070; ZVAL   =   14.000    mass and valenz                      
   RCORE  =    2.500    outmost cutoff radius                                   
   RWIGS  =    2.650; RWIGS  =    1.402    wigner-seitz radius (au A)           
   ENMAX  =  240.049; ENMIN  =  180.037 eV                                      
   ICORE  =        3    local potential                                         
   LCOR   =        T    correct aug charges                                     
   LPAW   =        T    paw PP                                                  
   EAUG   =  430.792                                                            
   DEXC   =    0.000                                                            
   RMAX   =    2.546    core radius for proj-oper                               
   RAUG   =    1.300    factor for augmentation sphere                          
   RDEP   =    2.520    radius for radial grids                                 
   RDEPT  =    2.044    core radius for aug-charge                              
                                                                                
   Atomic configuration                                                         
   11 entries                                                                   
     n  l   j            E        occ.                                          
     1  0  0.50    -21933.2692   2.0000                                         
     2  0  0.50     -3153.4096   2.0000                                         
     2  1  1.50     -2823.9548   6.0000                                         
     3  0  0.50      -555.3322   2.0000                                         
     3  1  1.50      -447.1024   6.0000                                         
     3  2  2.50      -273.0570  10.0000                                         
     4  0  0.50       -76.3589   2.0000                                         
     4  1  1.50       -46.4050   6.0000                                         
     4  2  2.50        -5.2029   7.0000                                         
     5  0  0.50        -4.2392   1.0000                                         
     4  3  2.50        -1.3606   0.0000                                         
   Description                                                                  
     l       E           TYP  RCUT    TYP  RCUT                                 
     1    -46.4050190     23  2.100                                             
     1      4.0817478     23  2.100                                             
     2     -5.2028758     23  2.500                                             
     2     -6.5634584     23  2.500                                             
     0     -4.2392192     23  2.500                                             
     0      7.0918828     23  2.500                                             
     3     -5.4423304     23  2.500                                             
  local pseudopotential read in
  partial core-charges read in
  partial kinetic energy density read in
  atomic valenz-charges read in
  non local Contribution for L=           1  read in
    real space projection operators read in
  non local Contribution for L=           1  read in
    real space projection operators read in
  non local Contribution for L=           2  read in
    real space projection operators read in
  non local Contribution for L=           2  read in
    real space projection operators read in
  non local Contribution for L=           0  read in
    real space projection operators read in
  non local Contribution for L=           0  read in
    real space projection operators read in
    PAW grid and wavefunctions read in
 
   number of l-projection  operators is LMAX  =           6
   number of lm-projection operators is LMMAX =          18
 
 Optimization of the real space projectors (new method)

 maximal supplied QI-value         = 34.20
 optimisation between [QCUT,QGAM] = [ 13.34, 27.02] = [ 49.83,204.46] Ry 
 Optimized for a Real-space Cutoff    1.04 Angstroem

   l    n(q)    QCUT    max X(q) W(low)/X(q) W(high)/X(q)  e(spline) 
   0      8    13.340   134.812    0.72E-04    0.21E-03    0.27E-06
   0      8    13.340    80.524    0.70E-04    0.21E-03    0.27E-06
   1      8    13.340    79.026    0.21E-03    0.16E-03    0.33E-06
   1      8    13.340    45.188    0.20E-03    0.15E-03    0.33E-06
 Optimization of the real space projectors (new method)

 maximal supplied QI-value         = 34.20
 optimisation between [QCUT,QGAM] = [ 13.34, 27.02] = [ 49.83,204.46] Ry 
 Optimized for a Real-space Cutoff    1.04 Angstroem

   l    n(q)    QCUT    max X(q) W(low)/X(q) W(high)/X(q)  e(spline) 
   0      8    13.340   134.812    0.72E-04    0.21E-03    0.27E-06
   0      8    13.340    80.524    0.70E-04    0.21E-03    0.27E-06
   1      8    13.340    79.026    0.21E-03    0.16E-03    0.33E-06
   1      8    13.340    45.188    0.20E-03    0.15E-03    0.33E-06
 Optimization of the real space projectors (new method)

 maximal supplied QI-value         = 34.20
 optimisation between [QCUT,QGAM] = [ 13.34, 27.02] = [ 49.83,204.46] Ry 
 Optimized for a Real-space Cutoff    0.98 Angstroem

   l    n(q)    QCUT    max X(q) W(low)/X(q) W(high)/X(q)  e(spline) 
   0      8    13.340    19.460    0.18E-03    0.41E-04    0.19E-06
   0      8    13.340    12.209    0.17E-03    0.45E-04    0.18E-06
   1      7    13.340     4.655    0.16E-03    0.30E-03    0.14E-06
 Optimization of the real space projectors (new method)

 maximal supplied QI-value         = 34.20
 optimisation between [QCUT,QGAM] = [ 13.34, 27.02] = [ 49.83,204.46] Ry 
 Optimized for a Real-space Cutoff    1.04 Angstroem

   l    n(q)    QCUT    max X(q) W(low)/X(q) W(high)/X(q)  e(spline) 
   0      8    13.340   148.539    0.85E-04    0.19E-03    0.21E-06
   0      8    13.340   106.192    0.84E-04    0.19E-03    0.21E-06
   1      8    13.340    73.877    0.18E-03    0.11E-03    0.36E-06
   1      8    13.340    50.042    0.17E-03    0.11E-03    0.36E-06
 Optimization of the real space projectors (new method)

 maximal supplied QI-value         = 34.20
 optimisation between [QCUT,QGAM] = [ 13.34, 27.02] = [ 49.83,204.46] Ry 
 Optimized for a Real-space Cutoff    0.98 Angstroem

   l    n(q)    QCUT    max X(q) W(low)/X(q) W(high)/X(q)  e(spline) 
   0      8    13.340   280.207    0.16E-03    0.35E-03    0.14E-06
   0      8    13.340   228.978    0.16E-03    0.35E-03    0.14E-06
   1      7    13.340    86.127    0.23E-03    0.25E-04    0.30E-06
   1      7    13.340    65.368    0.22E-03    0.27E-04    0.30E-06
 Optimization of the real space projectors (new method)

 maximal supplied QI-value         = 15.12
 optimisation between [QCUT,QGAM] = [ 13.45, 27.06] = [ 50.69,205.06] Ry 
 Optimized for a Real-space Cutoff    1.40 Angstroem

   l    n(q)    QCUT    max X(q) W(low)/X(q) W(high)/X(q)  e(spline) 
   1     11    13.455     3.180    0.18E-04    0.25E-04    0.55E-07
   1     11    13.455     5.351    0.12E-03    0.15E-03    0.24E-06
   2     10    13.455    66.565    0.13E-03    0.46E-04    0.26E-06
   2     10    13.455    63.466    0.13E-03    0.47E-04    0.27E-06
   0     11    13.455    85.644    0.47E-04    0.16E-04    0.33E-06
   0     11    13.455    44.119    0.43E-04    0.15E-04    0.30E-06
  PAW_PBE C_h 06Feb2004                 :
 energy of atom  1       EATOM= -147.1560
 kinetic energy error for atom=    0.0286 (will be added to EATOM!!)
  PAW_PBE C_h 06Feb2004                 :
 energy of atom  2       EATOM= -147.1560
 kinetic energy error for atom=    0.0286 (will be added to EATOM!!)
  PAW_PBE H 15Jun2001                   :
 energy of atom  3       EATOM=  -12.4884
 kinetic energy error for atom=    0.0002 (will be added to EATOM!!)
  PAW_PBE N_h 06Feb2004                 :
 energy of atom  4       EATOM= -264.5486
 kinetic energy error for atom=    0.0847 (will be added to EATOM!!)
  PAW_PBE O_h 06Feb2004                 :
 energy of atom  5       EATOM= -432.3788
 kinetic energy error for atom=    0.1855 (will be added to EATOM!!)
  PAW_PBE Ru_pv 28Jan2005               :
 energy of atom  6       EATOM=-1873.4746
 kinetic energy error for atom=    0.0017 (will be added to EATOM!!)
 
 
 POSCAR: C C H N O Ru                            
  positions in direct lattice
  velocities in cartesian coordinates
 exchange correlation table for  LEXCH =        8
   RHO(1)=    0.500       N(1)  =     2000
   RHO(2)=  100.500       N(2)  =     4000
 


--------------------------------------------------------------------------------------------------------


 ion  position               nearest neighbor table
   1  0.264  0.428  0.528-  46 1.09  25 1.39  24 1.40
   2  0.438  0.566  0.328-  43 1.09   3 1.39   6 1.39
   3  0.456  0.524  0.381-  38 1.09  49 1.36   2 1.39
   4  0.474  0.615  0.450-  34 1.09  49 1.36   5 1.39
   5  0.456  0.660  0.399-  33 1.09   4 1.39   6 1.40
   6  0.438  0.635  0.337-  32 1.09   2 1.39   5 1.40
   7  0.523  0.330  0.675-  26 1.09   8 1.39  16 1.40
   8  0.497  0.372  0.626-  31 1.09  51 1.36   7 1.39
   9  0.602  0.419  0.606-  51 1.37  10 1.40  14 1.47
  10  0.631  0.378  0.654-  28 1.09  16 1.39   9 1.40
  11  0.740  0.529  0.535-  41 1.09  15 1.39  12 1.40
  12  0.701  0.566  0.490-  37 1.09  13 1.39  11 1.40
  13  0.633  0.554  0.487-  47 1.09  53 1.36  12 1.39
  14  0.640  0.469  0.567-  53 1.37  15 1.40   9 1.47
  15  0.708  0.480  0.573-  36 1.09  11 1.39  14 1.40
  16  0.591  0.332  0.689-  27 1.09  10 1.39   7 1.40
  17  0.362  0.489  0.564-  50 1.37  25 1.40  21 1.46
  18  0.408  0.622  0.691-  48 1.09  22 1.39  19 1.40
  19  0.476  0.626  0.677-  44 1.09  20 1.39  18 1.40
  20  0.503  0.586  0.627-  42 1.09  52 1.36  19 1.39
  21  0.398  0.538  0.604-  52 1.38  22 1.40  17 1.46
  22  0.369  0.578  0.654-  30 1.09  18 1.39  21 1.40
  23  0.373  0.406  0.482-  39 1.09  50 1.35  24 1.39
  24  0.305  0.392  0.484-  40 1.09  23 1.39   1 1.40
  25  0.293  0.477  0.568-  45 1.09   1 1.39  17 1.40
  26  0.490  0.295  0.701-   7 1.09
  27  0.613  0.300  0.727-  16 1.09
  28  0.684  0.381  0.665-  10 1.09
  29  0.542  0.362  0.461-  54 0.97
  30  0.316  0.573  0.664-  22 1.09
  31  0.444  0.371  0.614-   8 1.09
  32  0.424  0.668  0.296-   6 1.09
  33  0.456  0.713  0.410-   5 1.09
  34  0.488  0.634  0.499-   4 1.09
  35  0.569  0.418  0.415-  54 0.98
  36  0.738  0.450  0.608-  15 1.09
  37  0.723  0.605  0.459-  12 1.09
  38  0.456  0.470  0.375-   3 1.09
  39  0.406  0.379  0.449-  23 1.09
  40  0.284  0.353  0.452-  24 1.09
  41  0.793  0.537  0.539-  11 1.09
  42  0.556  0.588  0.614-  20 1.09
  43  0.424  0.543  0.280-   2 1.09
  44  0.509  0.660  0.704-  19 1.09
  45  0.263  0.506  0.603-  25 1.09
  46  0.211  0.418  0.531-   1 1.09
  47  0.601  0.582  0.453-  13 1.09
  48  0.385  0.653  0.729-  18 1.09
  49  0.474  0.548  0.441-   4 1.36   3 1.36  55 2.12
  50  0.402  0.453  0.521-  23 1.35  17 1.37  55 2.06
  51  0.535  0.416  0.592-   8 1.36   9 1.37  55 2.06
  52  0.465  0.543  0.590-  20 1.36  21 1.38  55 2.01
  53  0.601  0.507  0.524-  13 1.36  14 1.37  55 2.08
  54  0.531  0.406  0.442-  29 0.97  35 0.98  55 2.24
  55  0.501  0.481  0.519-  52 2.01  50 2.06  51 2.06  53 2.08  49 2.12  54 2.24
 
  LATTYP: Found a simple cubic cell.
 ALAT       =    20.0000000000
  
  Lattice vectors:
  
 A1 = (  20.0000000000,   0.0000000000,   0.0000000000)
 A2 = (   0.0000000000,  20.0000000000,   0.0000000000)
 A3 = (   0.0000000000,   0.0000000000,  20.0000000000)


Analysis of symmetry for initial positions (statically):
=====================================================================
 Subroutine PRICEL returns:
 Original cell was already a primitive cell.
 

 Routine SETGRP: Setting up the symmetry group for a 
 simple cubic supercell.


 Subroutine GETGRP returns: Found  1 space group operations
 (whereof  1 operations were pure point group operations)
 out of a pool of 48 trial point group operations.


The static configuration has the point symmetry C_1 .


Analysis of symmetry for dynamics (positions and initial velocities):
=====================================================================
 Subroutine PRICEL returns:
 Original cell was already a primitive cell.
 

 Routine SETGRP: Setting up the symmetry group for a 
 simple cubic supercell.


 Subroutine GETGRP returns: Found  1 space group operations
 (whereof  1 operations were pure point group operations)
 out of a pool of 48 trial point group operations.


The dynamic configuration has the point symmetry C_1 .


Analysis of constrained symmetry for selective dynamics:
=====================================================================
 Subroutine PRICEL returns:
 Original cell was already a primitive cell.
 

 Routine SETGRP: Setting up the symmetry group for a 
 simple cubic supercell.


 Subroutine GETGRP returns: Found  1 space group operations
 (whereof  1 operations were pure point group operations)
 out of a pool of 48 trial point group operations.


The constrained configuration has the point symmetry C_1 .


Analysis of magnetic symmetry:
=====================================================================
 Subroutine PRICEL returns:
 Original cell was already a primitive cell.
 

 Subroutine MAGSYM returns: Found  1 space group operations
 (whereof  1 operations were pure point group operations)
 out of a pool of  1 trial space group operations
 (whereof  1 operations were pure point group operations)
 and found also     1 'primitive' translations


The magnetic configuration has the point symmetry C_1 .
 
 
 KPOINTS: K-Points                                

Automatic generation of k-mesh.
Space group operators:
 irot       det(A)        alpha          n_x          n_y          n_z        tau_x        tau_y        tau_z
    1     1.000000     0.000000     1.000000     0.000000     0.000000     0.000000     0.000000     0.000000
 
 Subroutine IBZKPT returns following result:
 ===========================================
 
 Found      1 irreducible k-points:
 
 Following reciprocal coordinates:
            Coordinates               Weight
  0.000000  0.000000  0.000000      1.000000
 
 Following cartesian coordinates:
            Coordinates               Weight
  0.000000  0.000000  0.000000      1.000000
 


--------------------------------------------------------------------------------------------------------




 Dimension of arrays:
   k-points           NKPTS =      1   k-points in BZ     NKDIM =      1   number of bands    NBANDS=    128
   number of dos      NEDOS =    301   number of ions     NIONS =     55
   non local maximal  LDIM  =      6   non local SUM 2l+1 LMDIM =     18
   total plane-waves  NPLWV = ******
   max r-space proj   IRMAX =   8473   max aug-charges    IRDMAX= 268848
   dimension x,y,z NGX =   180 NGY =  180 NGZ =  180
   dimension x,y,z NGXF=   360 NGYF=  360 NGZF=  360
   support grid    NGXF=   720 NGYF=  720 NGZF=  720
   ions per type =               1  24  23   5   1   1
 NGX,Y,Z   is equivalent  to a cutoff of  14.96, 14.96, 14.96 a.u.
 NGXF,Y,Z  is equivalent  to a cutoff of  29.92, 29.92, 29.92 a.u.


 I would recommend the setting:
   dimension x,y,z NGX =   173 NGY =  173 NGZ =  173
 SYSTEM =  c2_oh2_ruthenium_mol                    
 POSCAR =  C C H N O Ru                            

 Startparameter for this run:
   NWRITE =      2    write-flag & timer
   PREC   = accura    normal or accurate (medium, high low for compatibility)
   ISTART =      0    job   : 0-new  1-cont  2-samecut
   ICHARG =      2    charge: 1-file 2-atom 10-const
   ISPIN  =      2    spin polarized calculation?
   LNONCOLLINEAR =      F non collinear calculations
   LSORBIT =      F    spin-orbit coupling
   INIWAV =      1    electr: 0-lowe 1-rand  2-diag
   LASPH  =      F    aspherical Exc in radial PAW
   METAGGA=      F    non-selfconsistent MetaGGA calc.

 Electronic Relaxation 1
   ENCUT  =  700.0 eV  51.45 Ry    7.17 a.u.  43.15 43.15 43.15*2*pi/ulx,y,z
   ENINI  =  700.0     initial cutoff
   ENAUG  =  946.8 eV  augmentation charge cutoff
   NELM   =     60;   NELMIN=  2; NELMDL= -5     # of ELM steps 
   EDIFF  = 0.1E-04   stopping-criterion for ELM
   LREAL  =      T    real-space projection
   NLSPLINE    = F    spline interpolate recip. space projectors
   LCOMPAT=      F    compatible to vasp.4.4
   GGA_COMPAT  = T    GGA compatible to vasp.4.4-vasp.4.6
   LMAXPAW     = -100 max onsite density
   LMAXMIX     =    2 max onsite mixed and CHGCAR
   VOSKOWN=      0    Vosko Wilk Nusair interpolation
   ROPT   =   -0.00025  -0.00025  -0.00025  -0.00025
   ROPT   =   -0.00025  -0.00025
 Ionic relaxation
   EDIFFG = -.1E-01   stopping-criterion for IOM
   NSW    =      0    number of steps for IOM
   NBLOCK =      1;   KBLOCK =      1    inner block; outer block 
   IBRION =     -1    ionic relax: 0-MD 1-quasi-New 2-CG
   NFREE  =      0    steps in history (QN), initial steepest desc. (CG)
   ISIF   =      2    stress and relaxation
   IWAVPR =     10    prediction:  0-non 1-charg 2-wave 3-comb
   ISYM   =      2    0-nonsym 1-usesym 2-fastsym
   LCORR  =      T    Harris-Foulkes like correction to forces

   POTIM  = 0.5000    time-step for ionic-motion
   TEIN   =    0.0    initial temperature
   TEBEG  =    0.0;   TEEND  =   0.0 temperature during run
   SMASS  =  -3.00    Nose mass-parameter (am)
   estimated Nose-frequenzy (Omega)   =  0.10E-29 period in steps =****** mass=  -0.914E-26a.u.
   SCALEE = 1.0000    scale energy and forces
   NPACO  =    256;   APACO  = 16.0  distance and # of slots for P.C.
   PSTRESS=    0.0 pullay stress

  Mass of Ions in am
   POMASS =  12.01 12.01  1.00 14.00 16.00101.07
  Ionic Valenz
   ZVAL   =   4.50  4.00  1.00  5.00  6.00 14.00
  Atomic Wigner-Seitz radii
   RWIGS  =  -1.00 -1.00 -1.00 -1.00 -1.00 -1.00
  virtual crystal weights 
   VCA    =   1.00  1.00  1.00  1.00  1.00  1.00
   NELECT =     166.0000    total number of electrons
   NUPDOWN=       0.0000    fix difference up-down

 DOS related values:
   EMIN   =  10.00;   EMAX   =-10.00  energy-range for DOS
   EFERMI =   0.00
   ISMEAR =     0;   SIGMA  =   0.01  broadening in eV -4-tet -1-fermi 0-gaus

 Electronic relaxation 2 (details)
   IALGO  =     38    algorithm
   LDIAG  =      T    sub-space diagonalisation (order eigenvalues)
   LSUBROT=      F    optimize rotation matrix (better conditioning)
   TURBO    =      0    0=normal 1=particle mesh
   IRESTART =      0    0=no restart 2=restart with 2 vectors
   NREBOOT  =      0    no. of reboots
   NMIN     =      0    reboot dimension
   EREF     =   0.00    reference energy to select bands
   IMIX   =      4    mixing-type and parameters
     AMIX     =   0.40;   BMIX     =  2.00
     AMIX_MAG =   1.60;   BMIX_MAG =  2.00
     AMIN     =   0.10
     WC   =   100.;   INIMIX=   1;  MIXPRE=   1;  MAXMIX= -45

 Intra band minimization:
   WEIMIN = 0.0000     energy-eigenvalue tresh-hold
   EBREAK =  0.20E-07  absolut break condition
   DEPER  =   0.30     relativ break condition  

   TIME   =   0.05     timestep for ELM

  volume/ion in A,a.u.               =     145.45       981.58
  Fermi-wavevector in a.u.,A,eV,Ry     =   0.449864  0.850119  2.753510  0.202377
  Thomas-Fermi vector in A             =   1.430192
 
 Write flags
   LWAVE  =      T    write WAVECAR
   LCHARG =      T    write CHGCAR
   LVTOT  =      F    write LOCPOT, total local potential
   LVHAR  =      F    write LOCPOT, Hartree potential only
   LELF   =      F    write electronic localiz. function (ELF)
   LORBIT =      0    0 simple, 1 ext, 2 COOP (PROOUT)


 Dipole corrections
   LMONO  =      F    monopole corrections only (constant potential shift)
   LDIPOL =      F    correct potential (dipole corrections)
   IDIPOL =      0    1-x, 2-y, 3-z, 4-all directions 
   EPSILON=  1.0000000 bulk dielectric constant

 Core level calculations are selected ICORELEVEL =  2
  CLNT =           1       CLN =     1
  CLL  =           0       CLZ = 0.500
 Exchange correlation treatment:
   GGA     =    --    GGA type
   LEXCH   =     8    internal setting for exchange type
   VOSKOWN=      0    Vosko Wilk Nusair interpolation
   LHFCALC =     F    Hartree Fock is set to
   LHFONE  =     F    Hartree Fock one center treatment
   AEXX    =    0.0000 exact exchange contribution

 Linear response parameters
   LEPSILON=     F    determine dielectric tensor
   LRPA    =     F    only Hartree local field effects (RPA)
   LNABLA  =     F    use nabla operator in PAW spheres
   LVEL    =     F    velocity operator in full k-point grid
   LINTERFAST=   F  fast interpolation
   KINTER  =     0    interpolate to denser k-point grid
   CSHIFT  =0.1000    complex shift for real part using Kramers Kronig
   OMEGAMAX=  -1.0    maximum frequency
   DEG_THRESHOLD= 0.2000000E-02 threshold for treating states as degnerate
   RTIME   =    0.100 relaxation time in fs

 Orbital magnetization related:
   ORBITALMAG=     F  switch on orbital magnetization
   LCHIMAG   =     F  perturbation theory with respect to B field
   DQ        =  0.001000  dq finite difference perturbation B field



--------------------------------------------------------------------------------------------------------


 Static calculation
 charge density and potential will be updated during run
 spin polarized calculation
 Variant of blocked Davidson
 Davidson routine will perform the subspace rotation
 perform sub-space diagonalisation
    after iterative eigenvector-optimisation
 modified Broyden-mixing scheme, WC =      100.0
 initial mixing is a Kerker type mixing with AMIX =  0.4000 and BMIX =      2.0000
 Hartree-type preconditioning will be used
 using additional bands           45
 real space projection scheme for non local part
 use partial core corrections
 calculate Harris-corrections to forces 
   (improved forces if not selfconsistent)
 use gradient corrections 
 use of overlap-Matrix (Vanderbilt PP)
 Gauss-broadening in eV      SIGMA  =   0.01


--------------------------------------------------------------------------------------------------------


  energy-cutoff  :      700.00
  volume of cell :     8000.00
      direct lattice vectors                 reciprocal lattice vectors
    20.000000000  0.000000000  0.000000000     0.050000000  0.000000000  0.000000000
     0.000000000 20.000000000  0.000000000     0.000000000  0.050000000  0.000000000
     0.000000000  0.000000000 20.000000000     0.000000000  0.000000000  0.050000000

  length of vectors
    20.000000000 20.000000000 20.000000000     0.050000000  0.050000000  0.050000000


 
 k-points in units of 2pi/SCALE and weight: K-Points                                
   0.00000000  0.00000000  0.00000000       1.000
 
 k-points in reciprocal lattice and weights: K-Points                                
   0.00000000  0.00000000  0.00000000       1.000
 
 position of ions in fractional coordinates (direct lattice) 
   0.26422003  0.42785518  0.52821594
   0.43793752  0.56561110  0.32757008
   0.45581208  0.52423376  0.38051465
   0.47372925  0.61530131  0.44986522
   0.45595175  0.65963312  0.39935201
   0.43785737  0.63472201  0.33675972
   0.52307882  0.32955005  0.67474498
   0.49710163  0.37190466  0.62618823
   0.60227374  0.41933300  0.60593616
   0.63096398  0.37761922  0.65422416
   0.73964927  0.52855915  0.53463181
   0.70082162  0.56612858  0.49044049
   0.63257913  0.55363620  0.48652424
   0.63952130  0.46927713  0.56732841
   0.70843899  0.47974495  0.57314689
   0.59134754  0.33224398  0.68903016
   0.36211554  0.48866484  0.56417415
   0.40790931  0.62211625  0.69058213
   0.47619960  0.62606623  0.67660612
   0.50295190  0.58590820  0.62668073
   0.39825425  0.53800137  0.60426081
   0.36904589  0.57756069  0.65398228
   0.37289802  0.40579857  0.48223443
   0.30486503  0.39173492  0.48443166
   0.29334713  0.47671938  0.56830116
   0.48989745  0.29510618  0.70074864
   0.61334240  0.29968355  0.72673159
   0.68424189  0.38076917  0.66478776
   0.54225374  0.36233861  0.46129841
   0.31579090  0.57306911  0.66420366
   0.44416348  0.37118871  0.61364770
   0.42392665  0.66833230  0.29622671
   0.45642762  0.71313270  0.40950260
   0.48809132  0.63358802  0.49907234
   0.56912778  0.41808713  0.41480476
   0.73767440  0.44963919  0.60776512
   0.72277620  0.60481012  0.45904817
   0.45570253  0.47012894  0.37468790
   0.40614333  0.37888556  0.44852541
   0.28443799  0.35306162  0.45202062
   0.79326502  0.53703787  0.53892527
   0.55589708  0.58769132  0.61440612
   0.42412006  0.54328620  0.27986105
   0.50894741  0.65984570  0.70400156
   0.26265982  0.50568523  0.60265428
   0.21072272  0.41813760  0.53105039
   0.60090654  0.58197914  0.45254259
   0.38544357  0.65296704  0.72941133
   0.47424490  0.54794204  0.44140236
   0.40180479  0.45306079  0.52108436
   0.53520702  0.41608490  0.59173240
   0.46544808  0.54254992  0.59041194
   0.60138410  0.50650621  0.52397638
   0.53073984  0.40562607  0.44215451
   0.50088568  0.48087016  0.51934246
 
 position of ions in cartesian coordinates  (Angst):
   5.28440067  8.55710369 10.56431882
   8.75875044 11.31222209  6.55140167
   9.11624161 10.48467523  7.61029296
   9.47458509 12.30602619  8.99730442
   9.11903505 13.19266234  7.98704025
   8.75714739 12.69444028  6.73519441
  10.46157638  6.59100110 13.49489953
   9.94203263  7.43809325 12.52376455
  12.04547477  8.38665999 12.11872314
  12.61927957  7.55238445 13.08448329
  14.79298537 10.57118301 10.69263621
  14.01643234 11.32257164  9.80880974
  12.65158254 11.07272405  9.73048485
  12.79042597  9.38554253 11.34656829
  14.16877978  9.59489901 11.46293786
  11.82695089  6.64487969 13.78060313
   7.24231077  9.77329687 11.28348299
   8.15818611 12.44232505 13.81164268
   9.52399198 12.52132464 13.53212240
  10.05903801 11.71816400 12.53361469
   7.96508499 10.76002740 12.08521614
   7.38091777 11.55121387 13.07964553
   7.45796037  8.11597149  9.64468853
   6.09730063  7.83469839  9.68863321
   5.86694270  9.53438759 11.36602327
   9.79794892  5.90212351 14.01497288
  12.26684793  5.99367109 14.53463185
  13.68483783  7.61538334 13.29575520
  10.84507475  7.24677213  9.22596819
   6.31581791 11.46138226 13.28407311
   8.88326966  7.42377422 12.27295397
   8.47853309 13.36664601  5.92453423
   9.12855243 14.26265408  8.19005201
   9.76182647 12.67176037  9.98144677
  11.38255564  8.36174255  8.29609511
  14.75348806  8.99278384 12.15530242
  14.45552391 12.09620238  9.18096343
   9.11405064  9.40257887  7.49375804
   8.12286663  7.57771114  8.97050829
   5.68875982  7.06123239  9.04041232
  15.86530045 10.74075733 10.77850539
  11.11794158 11.75382641 12.28812234
   8.48240128 10.86572407  5.59722093
  10.17894811 13.19691406 14.08003122
   5.25319634 10.11370460 12.05308551
   4.21445446  8.36275200 10.62100772
  12.01813087 11.63958272  9.05085175
   7.70887141 13.05934086 14.58822659
   9.48489793 10.95884088  8.82804729
   8.03609572  9.06121573 10.42168714
  10.70414049  8.32169803 11.83464804
   9.30896151 10.85099836 11.80823871
  12.02768196 10.13012430 10.47952760
  10.61479684  8.11252146  8.84309019
  10.01771355  9.61740316 10.38684921
 


--------------------------------------------------------------------------------------------------------


 k-point  1 :   0.0000 0.0000 0.0000  plane waves:  336427

 maximum and minimum number of plane-waves per node :    336427   336427

 maximum number of plane-waves:    336427
 maximum index in each direction: 
   IXMAX=   43   IYMAX=   43   IZMAX=   43
   IXMIN=  -43   IYMIN=  -43   IZMIN=  -43

 NGX is ok and might be reduce to 174
 NGY is ok and might be reduce to 174
 NGZ is ok and might be reduce to 174

 serial   3D FFT for wavefunctions
 parallel 3D FFT for charge:
    minimum data exchange during FFTs selected (reduces bandwidth)


 total amount of memory used by VASP on root node   877132. kBytes
========================================================================

   base      :      30000. kBytes
   nonlr-proj:      19361. kBytes
   fftplans  :     269516. kBytes
   grid      :     534988. kBytes
   one-center:       1710. kBytes
   wavefun   :      21557. kBytes
 
     INWAV:  cpu time    0.00: real time    0.00
 Broyden mixing: mesh for mixing (old mesh)
   NGX = 87   NGY = 87   NGZ = 87
  (NGX  =360   NGY  =360   NGZ  =360)
  gives a total of 658503 points

 initial charge density was supplied:
 charge density of overlapping atoms calculated
 number of electron     168.5000000 magnetization       0.0000000
 keeping initial charge density in first step


--------------------------------------------------------------------------------------------------------


 Maximum index for non-local projection operator         8166
 Maximum index for augmentation-charges         3214 (set IRDMAX)


--------------------------------------------------------------------------------------------------------


 First call to EWALD:  gamma=   0.089
 Maximum number of real-space cells 3x 3x 3
 Maximum number of reciprocal cells 3x 3x 3

 FEWALD executed in parallel
    FEWALD:  cpu time    0.00: real time    0.00


----------------------------------------- Iteration    1(   1)  ---------------------------------------


    POTLOK:  cpu time    4.70: real time    4.74
    SETDIJ:  cpu time    2.80: real time    2.82
     EDDAV:  cpu time   14.76: real time   15.70
       DOS:  cpu time    0.02: real time    0.02
    --------------------------------------------
      LOOP:  cpu time   22.29: real time   23.27

 eigenvalue-minimisations  :   768
 total energy-change (2. order) : 0.9093526E+03  (-0.5881135E+04)
 number of electron     168.5000000 magnetization       0.0000000
 augmentation part      168.5000000 magnetization       0.0000000

 Free energy of the ion-electron system (eV)
  ---------------------------------------------------
  alpha Z        PSCENC =        12.91687988
  Ewald energy   TEWEN  =     23266.04766040
  -Hartree energ DENC   =    -28868.35661891
  -exchange      EXHF   =         0.00000000
  -V(xc)+E(xc)   XCENC  =       400.93212639
  PAW double counting   =      5890.45591622    -5710.10246236
  entropy T*S    EENTRO =        -0.00000487
  eigenvalues    EBANDS =     -1675.94077247
  atomic energy  EATOM  =      7593.39991119
  ---------------------------------------------------
  free energy    TOTEN  =       909.35263548 eV

  energy without entropy =      909.35264035  energy(sigma->0) =      909.35263791


--------------------------------------------------------------------------------------------------------




----------------------------------------- Iteration    1(   2)  ---------------------------------------


     EDDAV:  cpu time   19.06: real time   20.24
       DOS:  cpu time    0.01: real time    0.01
    --------------------------------------------
      LOOP:  cpu time   19.07: real time   20.26

 eigenvalue-minimisations  :  1024
 total energy-change (2. order) :-0.9767918E+03  (-0.9703571E+03)
 number of electron     168.5000000 magnetization       0.0000000
 augmentation part      168.5000000 magnetization       0.0000000

 Free energy of the ion-electron system (eV)
  ---------------------------------------------------
  alpha Z        PSCENC =        12.91687988
  Ewald energy   TEWEN  =     23266.04766040
  -Hartree energ DENC   =    -28868.35661891
  -exchange      EXHF   =         0.00000000
  -V(xc)+E(xc)   XCENC  =       400.93212639
  PAW double counting   =      5890.45591622    -5710.10246236
  entropy T*S    EENTRO =        -0.00000000
  eigenvalues    EBANDS =     -2652.73257685
  atomic energy  EATOM  =      7593.39991119
  ---------------------------------------------------
  free energy    TOTEN  =       -67.43916403 eV

  energy without entropy =      -67.43916403  energy(sigma->0) =      -67.43916403


--------------------------------------------------------------------------------------------------------




----------------------------------------- Iteration    1(   3)  ---------------------------------------


     EDDAV:  cpu time   15.99: real time   16.94
       DOS:  cpu time    0.01: real time    0.01
    --------------------------------------------
      LOOP:  cpu time   15.99: real time   16.95

 eigenvalue-minimisations  :   832
 total energy-change (2. order) :-0.3259032E+03  (-0.3254749E+03)
 number of electron     168.5000000 magnetization       0.0000000
 augmentation part      168.5000000 magnetization       0.0000000

 Free energy of the ion-electron system (eV)
  ---------------------------------------------------
  alpha Z        PSCENC =        12.91687988
  Ewald energy   TEWEN  =     23266.04766040
  -Hartree energ DENC   =    -28868.35661891
  -exchange      EXHF   =         0.00000000
  -V(xc)+E(xc)   XCENC  =       400.93212639
  PAW double counting   =      5890.45591622    -5710.10246236
  entropy T*S    EENTRO =        -0.00000000
  eigenvalues    EBANDS =     -2978.63581756
  atomic energy  EATOM  =      7593.39991119
  ---------------------------------------------------
  free energy    TOTEN  =      -393.34240475 eV

  energy without entropy =     -393.34240475  energy(sigma->0) =     -393.34240475


--------------------------------------------------------------------------------------------------------




----------------------------------------- Iteration    1(   4)  ---------------------------------------


     EDDAV:  cpu time   12.72: real time   13.38
       DOS:  cpu time    0.01: real time    0.01
    --------------------------------------------
      LOOP:  cpu time   12.73: real time   13.39

 eigenvalue-minimisations  :   640
 total energy-change (2. order) :-0.1897580E+02  (-0.1895279E+02)
 number of electron     168.5000000 magnetization       0.0000000
 augmentation part      168.5000000 magnetization       0.0000000

 Free energy of the ion-electron system (eV)
  ---------------------------------------------------
  alpha Z        PSCENC =        12.91687988
  Ewald energy   TEWEN  =     23266.04766040
  -Hartree energ DENC   =    -28868.35661891
  -exchange      EXHF   =         0.00000000
  -V(xc)+E(xc)   XCENC  =       400.93212639
  PAW double counting   =      5890.45591622    -5710.10246236
  entropy T*S    EENTRO =        -0.00000000
  eigenvalues    EBANDS =     -2997.61161383
  atomic energy  EATOM  =      7593.39991119
  ---------------------------------------------------
  free energy    TOTEN  =      -412.31820101 eV

  energy without entropy =     -412.31820101  energy(sigma->0) =     -412.31820101


--------------------------------------------------------------------------------------------------------




----------------------------------------- Iteration    1(   5)  ---------------------------------------


     EDDAV:  cpu time   17.06: real time   18.07
       DOS:  cpu time    0.01: real time    0.01
    CHARGE:  cpu time    5.16: real time    5.18
    MIXING:  cpu time    0.09: real time    0.09
    --------------------------------------------
      LOOP:  cpu time   22.32: real time   23.35

 eigenvalue-minimisations  :   896
 total energy-change (2. order) :-0.2637011E+00  (-0.2635954E+00)
 number of electron     166.0000000 magnetization      -0.0000000
 augmentation part        3.6030719 magnetization       0.0000094

 Broyden mixing:
  rms(total) = 0.57219E+01    rms(broyden)= 0.57212E+01
  rms(prec ) = 0.60955E+01
  weight for this iteration     100.00

 Free energy of the ion-electron system (eV)
  ---------------------------------------------------
  alpha Z        PSCENC =        12.91687988
  Ewald energy   TEWEN  =     23266.04766040
  -Hartree energ DENC   =    -28868.35661891
  -exchange      EXHF   =         0.00000000
  -V(xc)+E(xc)   XCENC  =       400.93212639
  PAW double counting   =      5890.45591622    -5710.10246236
  entropy T*S    EENTRO =        -0.00000000
  eigenvalues    EBANDS =     -2997.87531488
  atomic energy  EATOM  =      7593.39991119
  ---------------------------------------------------
  free energy    TOTEN  =      -412.58190207 eV

  energy without entropy =     -412.58190207  energy(sigma->0) =     -412.58190207


--------------------------------------------------------------------------------------------------------




----------------------------------------- Iteration    1(   6)  ---------------------------------------


    POTLOK:  cpu time    4.58: real time    4.61
    SETDIJ:  cpu time    2.82: real time    2.82
     EDDAV:  cpu time   10.83: real time   11.48
       DOS:  cpu time    0.01: real time    0.01
    CHARGE:  cpu time    5.13: real time    5.14
    MIXING:  cpu time    0.18: real time    0.18
    --------------------------------------------
      LOOP:  cpu time   23.55: real time   24.24

 eigenvalue-minimisations  :   512
 total energy-change (2. order) : 0.1928811E+02  (-0.3460178E+02)
 number of electron     166.0000000 magnetization       0.0000000
 augmentation part        6.4627367 magnetization       0.0000783

 Broyden mixing:
  rms(total) = 0.38492E+01    rms(broyden)= 0.38490E+01
  rms(prec ) = 0.40162E+01
  weight for this iteration     100.00

 eigenvalues of (default mixing * dielectric matrix)
  average eigenvalue GAMMA=   1.0686
  1.0686

 Free energy of the ion-electron system (eV)
  ---------------------------------------------------
  alpha Z        PSCENC =        12.91687988
  Ewald energy   TEWEN  =     23266.04766040
  -Hartree energ DENC   =    -28875.59014033
  -exchange      EXHF   =         0.00000000
  -V(xc)+E(xc)   XCENC  =       406.52044843
  PAW double counting   =     20876.77396990   -20709.16790734
  entropy T*S    EENTRO =        -0.00000000
  eigenvalues    EBANDS =     -2964.19461250
  atomic energy  EATOM  =      7593.39991119
  ---------------------------------------------------
  free energy    TOTEN  =      -393.29379037 eV

  energy without entropy =     -393.29379037  energy(sigma->0) =     -393.29379037


--------------------------------------------------------------------------------------------------------




----------------------------------------- Iteration    1(   7)  ---------------------------------------


    POTLOK:  cpu time    4.58: real time    4.60
    SETDIJ:  cpu time    2.79: real time    2.81
     EDDAV:  cpu time   15.00: real time   16.33
       DOS:  cpu time    0.04: real time    0.04
    CHARGE:  cpu time    4.95: real time    4.98
    MIXING:  cpu time    0.26: real time    0.26
    --------------------------------------------
      LOOP:  cpu time   27.63: real time   29.02

 eigenvalue-minimisations  :   768
 total energy-change (2. order) : 0.1038559E+02  (-0.2392375E+01)
 number of electron     166.0000000 magnetization       0.0000000
 augmentation part        5.5457331 magnetization       0.0000041

 Broyden mixing:
  rms(total) = 0.23523E+01    rms(broyden)= 0.23523E+01
  rms(prec ) = 0.24221E+01
  weight for this iteration     100.00

 eigenvalues of (default mixing * dielectric matrix)
  average eigenvalue GAMMA=   1.4521
  0.7585  2.1456

 Free energy of the ion-electron system (eV)
  ---------------------------------------------------
  alpha Z        PSCENC =        12.91687988
  Ewald energy   TEWEN  =     23266.04766040
  -Hartree energ DENC   =    -29006.85754956
  -exchange      EXHF   =         0.00000000
  -V(xc)+E(xc)   XCENC  =       411.97697084
  PAW double counting   =     36601.01610031   -36428.64607340
  entropy T*S    EENTRO =        -0.00000000
  eigenvalues    EBANDS =     -2832.76209687
  atomic energy  EATOM  =      7593.39991119
  ---------------------------------------------------
  free energy    TOTEN  =      -382.90819720 eV

  energy without entropy =     -382.90819720  energy(sigma->0) =     -382.90819720


--------------------------------------------------------------------------------------------------------




----------------------------------------- Iteration    1(   8)  ---------------------------------------


    POTLOK:  cpu time    4.61: real time    4.64
    SETDIJ:  cpu time    2.85: real time    2.86
     EDDAV:  cpu time   15.16: real time   16.46
       DOS:  cpu time    0.05: real time    0.05
    CHARGE:  cpu time    5.21: real time    5.22
    MIXING:  cpu time    0.19: real time    0.19
    --------------------------------------------
      LOOP:  cpu time   28.06: real time   29.42

 eigenvalue-minimisations  :   768
 total energy-change (2. order) : 0.4075442E+01  (-0.1732961E+01)
 number of electron     166.0000000 magnetization       0.0000000
 augmentation part        4.8220644 magnetization       0.0000074

 Broyden mixing:
  rms(total) = 0.95088E+00    rms(broyden)= 0.95085E+00
  rms(prec ) = 0.10418E+01
  weight for this iteration     100.00

 eigenvalues of (default mixing * dielectric matrix)
  average eigenvalue GAMMA=   1.4615
  2.7057  0.8394  0.8394

 Free energy of the ion-electron system (eV)
  ---------------------------------------------------
  alpha Z        PSCENC =        12.91687988
  Ewald energy   TEWEN  =     23266.04766040
  -Hartree energ DENC   =    -29160.01737175
  -exchange      EXHF   =         0.00000000
  -V(xc)+E(xc)   XCENC  =       419.95934134
  PAW double counting   =     70303.16866971   -70127.77485341
  entropy T*S    EENTRO =        -0.00000000
  eigenvalues    EBANDS =     -2686.53299256
  atomic energy  EATOM  =      7593.39991119
  ---------------------------------------------------
  free energy    TOTEN  =      -378.83275520 eV

  energy without entropy =     -378.83275520  energy(sigma->0) =     -378.83275520


--------------------------------------------------------------------------------------------------------




----------------------------------------- Iteration    1(   9)  ---------------------------------------


    POTLOK:  cpu time    4.59: real time    4.60
    SETDIJ:  cpu time    2.78: real time    2.80
     EDDAV:  cpu time   15.02: real time   16.29
       DOS:  cpu time    0.05: real time    0.05
    CHARGE:  cpu time    5.20: real time    5.23
    MIXING:  cpu time    0.11: real time    0.11
    --------------------------------------------
      LOOP:  cpu time   27.75: real time   29.09

 eigenvalue-minimisations  :   768
 total energy-change (2. order) : 0.1158301E+01  (-0.6519190E+00)
 number of electron     166.0000000 magnetization       0.0000000
 augmentation part        5.2659014 magnetization      -0.0000097

 Broyden mixing:
  rms(total) = 0.35913E+00    rms(broyden)= 0.35909E+00
  rms(prec ) = 0.39736E+00
  weight for this iteration     100.00

 eigenvalues of (default mixing * dielectric matrix)
  average eigenvalue GAMMA=   1.3227
  2.5130  1.2148  0.7814  0.7814

 Free energy of the ion-electron system (eV)
  ---------------------------------------------------
  alpha Z        PSCENC =        12.91687988
  Ewald energy   TEWEN  =     23266.04766040
  -Hartree energ DENC   =    -29175.64972459
  -exchange      EXHF   =         0.00000000
  -V(xc)+E(xc)   XCENC  =       422.50266046
  PAW double counting   =     82877.22149648   -82703.89253837
  entropy T*S    EENTRO =        -0.00000000
  eigenvalues    EBANDS =     -2670.22079941
  atomic energy  EATOM  =      7593.39991119
  ---------------------------------------------------
  free energy    TOTEN  =      -377.67445394 eV

  energy without entropy =     -377.67445394  energy(sigma->0) =     -377.67445394


--------------------------------------------------------------------------------------------------------




----------------------------------------- Iteration    1(  10)  ---------------------------------------


    POTLOK:  cpu time    4.59: real time    4.61
    SETDIJ:  cpu time    2.79: real time    2.79
     EDDAV:  cpu time   15.18: real time   16.49
       DOS:  cpu time    0.05: real time    0.05
    CHARGE:  cpu time    5.12: real time    5.14
    MIXING:  cpu time    0.13: real time    0.13
    --------------------------------------------
      LOOP:  cpu time   27.86: real time   29.22

 eigenvalue-minimisations  :   768
 total energy-change (2. order) : 0.2954544E-01  (-0.3130867E-01)
 number of electron     166.0000000 magnetization       0.0000000
 augmentation part        5.3427756 magnetization      -0.0000067

 Broyden mixing:
  rms(total) = 0.25796E+00    rms(broyden)= 0.25795E+00
  rms(prec ) = 0.30317E+00
  weight for this iteration     100.00

 eigenvalues of (default mixing * dielectric matrix)
  average eigenvalue GAMMA=   1.3931
  2.4596  1.8846  0.8254  0.8254  0.9705

 Free energy of the ion-electron system (eV)
  ---------------------------------------------------
  alpha Z        PSCENC =        12.91687988
  Ewald energy   TEWEN  =     23266.04766040
  -Hartree energ DENC   =    -29163.54452919
  -exchange      EXHF   =         0.00000000
  -V(xc)+E(xc)   XCENC  =       422.44887091
  PAW double counting   =     81294.54219508   -81121.59285356
  entropy T*S    EENTRO =        -0.00000000
  eigenvalues    EBANDS =     -2681.86304323
  atomic energy  EATOM  =      7593.39991119
  ---------------------------------------------------
  free energy    TOTEN  =      -377.64490850 eV

  energy without entropy =     -377.64490850  energy(sigma->0) =     -377.64490850


--------------------------------------------------------------------------------------------------------




----------------------------------------- Iteration    1(  11)  ---------------------------------------


    POTLOK:  cpu time    4.58: real time    4.61
    SETDIJ:  cpu time    2.80: real time    2.81
     EDDAV:  cpu time   17.18: real time   18.53
       DOS:  cpu time    0.05: real time    0.05
    CHARGE:  cpu time    4.91: real time    5.21
    MIXING:  cpu time    0.09: real time    0.09
    --------------------------------------------
      LOOP:  cpu time   29.61: real time   31.30

 eigenvalue-minimisations  :   896
 total energy-change (2. order) : 0.1419894E+00  (-0.1861247E-01)
 number of electron     166.0000000 magnetization       0.0000000
 augmentation part        5.2871907 magnetization      -0.0000071

 Broyden mixing:
  rms(total) = 0.10628E+00    rms(broyden)= 0.10627E+00
  rms(prec ) = 0.14946E+00
  weight for this iteration     100.00

 eigenvalues of (default mixing * dielectric matrix)
  average eigenvalue GAMMA=   1.4727
  2.5988  2.5988  0.8400  0.8400  1.0622  0.8962

 Free energy of the ion-electron system (eV)
  ---------------------------------------------------
  alpha Z        PSCENC =        12.91687988
  Ewald energy   TEWEN  =     23266.04766040
  -Hartree energ DENC   =    -29162.50500949
  -exchange      EXHF   =         0.00000000
  -V(xc)+E(xc)   XCENC  =       423.18642842
  PAW double counting   =     81936.26135336   -81763.09228925
  entropy T*S    EENTRO =        -0.00000000
  eigenvalues    EBANDS =     -2683.71785362
  atomic energy  EATOM  =      7593.39991119
  ---------------------------------------------------
  free energy    TOTEN  =      -377.50291910 eV

  energy without entropy =     -377.50291910  energy(sigma->0) =     -377.50291910


--------------------------------------------------------------------------------------------------------




----------------------------------------- Iteration    1(  12)  ---------------------------------------


    POTLOK:  cpu time    4.59: real time    4.61
    SETDIJ:  cpu time    2.81: real time    2.82
     EDDAV:  cpu time   15.16: real time   16.46
       DOS:  cpu time    0.05: real time    0.05
    CHARGE:  cpu time    5.20: real time    5.23
    MIXING:  cpu time    0.11: real time    0.11
    --------------------------------------------
      LOOP:  cpu time   27.92: real time   29.28

 eigenvalue-minimisations  :   768
 total energy-change (2. order) : 0.6851926E-01  (-0.9383158E-02)
 number of electron     166.0000000 magnetization       0.0000000
 augmentation part        5.2464123 magnetization       0.0000088

 Broyden mixing:
  rms(total) = 0.67093E-01    rms(broyden)= 0.67089E-01
  rms(prec ) = 0.98767E-01
  weight for this iteration     100.00

 eigenvalues of (default mixing * dielectric matrix)
  average eigenvalue GAMMA=   1.4498
  2.7951  2.7951  0.8472  0.8472  1.0051  1.0051  0.8535

 Free energy of the ion-electron system (eV)
  ---------------------------------------------------
  alpha Z        PSCENC =        12.91687988
  Ewald energy   TEWEN  =     23266.04766040
  -Hartree energ DENC   =    -29158.00205951
  -exchange      EXHF   =         0.00000000
  -V(xc)+E(xc)   XCENC  =       423.76905953
  PAW double counting   =     81735.34904141   -81562.08366408
  entropy T*S    EENTRO =        -0.00000000
  eigenvalues    EBANDS =     -2688.83122866
  atomic energy  EATOM  =      7593.39991119
  ---------------------------------------------------
  free energy    TOTEN  =      -377.43439984 eV

  energy without entropy =     -377.43439984  energy(sigma->0) =     -377.43439984


--------------------------------------------------------------------------------------------------------




----------------------------------------- Iteration    1(  13)  ---------------------------------------


    POTLOK:  cpu time    4.59: real time    4.62
    SETDIJ:  cpu time    2.80: real time    2.81
     EDDAV:  cpu time   15.04: real time   16.31
       DOS:  cpu time    0.05: real time    0.05
    CHARGE:  cpu time    5.15: real time    5.17
    MIXING:  cpu time    0.26: real time    0.26
    --------------------------------------------
      LOOP:  cpu time   27.90: real time   29.22

 eigenvalue-minimisations  :   768
 total energy-change (2. order) : 0.2277885E-01  (-0.2122027E-02)
 number of electron     166.0000000 magnetization       0.0000000
 augmentation part        5.2553852 magnetization      -0.0000095

 Broyden mixing:
  rms(total) = 0.47538E-01    rms(broyden)= 0.47537E-01
  rms(prec ) = 0.69874E-01
  weight for this iteration     100.00

 eigenvalues of (default mixing * dielectric matrix)
  average eigenvalue GAMMA=   1.5535
  3.3275  2.9547  1.4165  1.4165  0.9878  0.8435  0.8435  0.6384

 Free energy of the ion-electron system (eV)
  ---------------------------------------------------
  alpha Z        PSCENC =        12.91687988
  Ewald energy   TEWEN  =     23266.04766040
  -Hartree energ DENC   =    -29150.07365081
  -exchange      EXHF   =         0.00000000
  -V(xc)+E(xc)   XCENC  =       424.06113642
  PAW double counting   =     81253.77941820   -81080.61982681
  entropy T*S    EENTRO =        -0.00000000
  eigenvalues    EBANDS =     -2696.92314946
  atomic energy  EATOM  =      7593.39991119
  ---------------------------------------------------
  free energy    TOTEN  =      -377.41162099 eV

  energy without entropy =     -377.41162099  energy(sigma->0) =     -377.41162099


--------------------------------------------------------------------------------------------------------




----------------------------------------- Iteration    1(  14)  ---------------------------------------


    POTLOK:  cpu time    4.60: real time    4.62
    SETDIJ:  cpu time    2.81: real time    2.81
     EDDAV:  cpu time   15.19: real time   16.48
       DOS:  cpu time    0.05: real time    0.05
    CHARGE:  cpu time    5.13: real time    5.13
    MIXING:  cpu time    0.21: real time    0.22
    --------------------------------------------
      LOOP:  cpu time   27.99: real time   29.30

 eigenvalue-minimisations  :   768
 total energy-change (2. order) : 0.7629052E-02  (-0.1237308E-02)
 number of electron     166.0000000 magnetization       0.0000000
 augmentation part        5.2602760 magnetization       0.0000062

 Broyden mixing:
  rms(total) = 0.29203E-01    rms(broyden)= 0.29202E-01
  rms(prec ) = 0.44969E-01
  weight for this iteration     100.00

 eigenvalues of (default mixing * dielectric matrix)
  average eigenvalue GAMMA=   1.6443
  4.4231  2.6047  2.0128  1.4523  0.8389  0.8389  1.0003  1.0003  0.6271

 Free energy of the ion-electron system (eV)
  ---------------------------------------------------
  alpha Z        PSCENC =        12.91687988
  Ewald energy   TEWEN  =     23266.04766040
  -Hartree energ DENC   =    -29141.59115866
  -exchange      EXHF   =         0.00000000
  -V(xc)+E(xc)   XCENC  =       424.27707392
  PAW double counting   =     81000.41155909   -80827.31758707
  entropy T*S    EENTRO =        -0.00000000
  eigenvalues    EBANDS =     -2705.54833070
  atomic energy  EATOM  =      7593.39991119
  ---------------------------------------------------
  free energy    TOTEN  =      -377.40399194 eV

  energy without entropy =     -377.40399194  energy(sigma->0) =     -377.40399194


--------------------------------------------------------------------------------------------------------




----------------------------------------- Iteration    1(  15)  ---------------------------------------


    POTLOK:  cpu time    4.61: real time    4.63
    SETDIJ:  cpu time    2.82: real time    2.82
     EDDAV:  cpu time   15.06: real time   16.32
       DOS:  cpu time    0.05: real time    0.05
    CHARGE:  cpu time    5.23: real time    5.23
    MIXING:  cpu time    0.17: real time    0.17
    --------------------------------------------
      LOOP:  cpu time   27.95: real time   29.23

 eigenvalue-minimisations  :   768
 total energy-change (2. order) :-0.3364211E-02  (-0.5764823E-03)
 number of electron     166.0000000 magnetization       0.0000000
 augmentation part        5.2557789 magnetization      -0.0000034

 Broyden mixing:
  rms(total) = 0.20950E-01    rms(broyden)= 0.20949E-01
  rms(prec ) = 0.30006E-01
  weight for this iteration     100.00

 eigenvalues of (default mixing * dielectric matrix)
  average eigenvalue GAMMA=   1.7649
  5.3341  2.5203  2.5203  1.4950  1.4950  0.8455  0.8455  0.9839  0.9839  0.6258

 Free energy of the ion-electron system (eV)
  ---------------------------------------------------
  alpha Z        PSCENC =        12.91687988
  Ewald energy   TEWEN  =     23266.04766040
  -Hartree energ DENC   =    -29132.55622073
  -exchange      EXHF   =         0.00000000
  -V(xc)+E(xc)   XCENC  =       424.40232690
  PAW double counting   =     81038.44717878   -80865.33979508
  entropy T*S    EENTRO =        -0.00000000
  eigenvalues    EBANDS =     -2714.72529749
  atomic energy  EATOM  =      7593.39991119
  ---------------------------------------------------
  free energy    TOTEN  =      -377.40735615 eV

  energy without entropy =     -377.40735615  energy(sigma->0) =     -377.40735615


--------------------------------------------------------------------------------------------------------




----------------------------------------- Iteration    1(  16)  ---------------------------------------


    POTLOK:  cpu time    4.73: real time    4.76
    SETDIJ:  cpu time    2.80: real time    2.80
     EDDAV:  cpu time   15.02: real time   16.32
       DOS:  cpu time    0.05: real time    0.05
    CHARGE:  cpu time    5.23: real time    5.24
    MIXING:  cpu time    0.16: real time    0.16
    --------------------------------------------
      LOOP:  cpu time   27.98: real time   29.33

 eigenvalue-minimisations  :   768
 total energy-change (2. order) :-0.9801240E-02  (-0.2488425E-03)
 number of electron     166.0000000 magnetization       0.0000000
 augmentation part        5.2584442 magnetization       0.0000039

 Broyden mixing:
  rms(total) = 0.99346E-02    rms(broyden)= 0.99341E-02
  rms(prec ) = 0.15381E-01
  weight for this iteration     100.00

 eigenvalues of (default mixing * dielectric matrix)
  average eigenvalue GAMMA=   1.8147
  6.1149  2.7057  2.7057  1.6059  1.6059  0.8444  0.8444  0.9853  0.9853  0.9388
  0.6253

 Free energy of the ion-electron system (eV)
  ---------------------------------------------------
  alpha Z        PSCENC =        12.91687988
  Ewald energy   TEWEN  =     23266.04766040
  -Hartree energ DENC   =    -29122.61462651
  -exchange      EXHF   =         0.00000000
  -V(xc)+E(xc)   XCENC  =       424.37940907
  PAW double counting   =     81152.67557487   -80979.55166694
  entropy T*S    EENTRO =        -0.00000000
  eigenvalues    EBANDS =     -2724.67029935
  atomic energy  EATOM  =      7593.39991119
  ---------------------------------------------------
  free energy    TOTEN  =      -377.41715739 eV

  energy without entropy =     -377.41715739  energy(sigma->0) =     -377.41715739


--------------------------------------------------------------------------------------------------------




----------------------------------------- Iteration    1(  17)  ---------------------------------------


    POTLOK:  cpu time    4.60: real time    4.63
    SETDIJ:  cpu time    2.79: real time    2.79
     EDDAV:  cpu time   15.04: real time   16.31
       DOS:  cpu time    0.05: real time    0.05
    CHARGE:  cpu time    5.13: real time    5.13
    MIXING:  cpu time    0.12: real time    0.12
    --------------------------------------------
      LOOP:  cpu time   27.74: real time   29.04

 eigenvalue-minimisations  :   768
 total energy-change (2. order) :-0.6459549E-02  (-0.1095675E-03)
 number of electron     166.0000000 magnetization       0.0000000
 augmentation part        5.2605846 magnetization      -0.0000053

 Broyden mixing:
  rms(total) = 0.76724E-02    rms(broyden)= 0.76722E-02
  rms(prec ) = 0.10381E-01
  weight for this iteration     100.00

 eigenvalues of (default mixing * dielectric matrix)
  average eigenvalue GAMMA=   1.8749
  6.6550  2.8345  2.8345  1.8948  1.8948  0.8442  0.8442  1.1832  1.0135  1.0135
  0.8609  0.6253

 Free energy of the ion-electron system (eV)
  ---------------------------------------------------
  alpha Z        PSCENC =        12.91687988
  Ewald energy   TEWEN  =     23266.04766040
  -Hartree energ DENC   =    -29116.68467345
  -exchange      EXHF   =         0.00000000
  -V(xc)+E(xc)   XCENC  =       424.33003048
  PAW double counting   =     81173.24771170   -81000.11874458
  entropy T*S    EENTRO =        -0.00000000
  eigenvalues    EBANDS =     -2730.56239257
  atomic energy  EATOM  =      7593.39991119
  ---------------------------------------------------
  free energy    TOTEN  =      -377.42361694 eV

  energy without entropy =     -377.42361694  energy(sigma->0) =     -377.42361694


--------------------------------------------------------------------------------------------------------




----------------------------------------- Iteration    1(  18)  ---------------------------------------


    POTLOK:  cpu time    4.74: real time    4.78
    SETDIJ:  cpu time    2.81: real time    2.81
     EDDAV:  cpu time   15.04: real time   16.32
       DOS:  cpu time    0.05: real time    0.05
    CHARGE:  cpu time    5.26: real time    5.26
    MIXING:  cpu time    0.13: real time    0.13
    --------------------------------------------
      LOOP:  cpu time   28.04: real time   29.35

 eigenvalue-minimisations  :   768
 total energy-change (2. order) :-0.5834833E-02  (-0.5355728E-04)
 number of electron     166.0000000 magnetization       0.0000000
 augmentation part        5.2599273 magnetization       0.0000103

 Broyden mixing:
  rms(total) = 0.42132E-02    rms(broyden)= 0.42131E-02
  rms(prec ) = 0.56760E-02
  weight for this iteration     100.00

 eigenvalues of (default mixing * dielectric matrix)
[...]
 12.558   0.000  21.151   0.000   0.001   0.000   0.000   0.000   0.005   0.000   0.002   0.000   0.000   0.000   0.008   0.000
 21.151   0.000  35.623   0.000   0.002   0.000   0.000   0.000   0.008   0.000   0.004   0.000   0.001   0.000   0.014   0.000
  0.001   0.000   0.002   0.000  -3.539   0.000  -0.001   0.000  -0.000   0.000  -6.361   0.000  -0.001   0.000  -0.000   0.000
  0.000   0.000   0.000   0.000  -0.001   0.000  -3.539   0.000   0.000   0.000  -0.001   0.000  -6.360   0.000   0.000   0.000
  0.005   0.000   0.008   0.000  -0.000   0.000   0.000   0.000  -3.539   0.000  -0.000   0.000   0.000   0.000  -6.361   0.000
  0.002   0.000   0.004   0.000  -6.361   0.000  -0.001   0.000  -0.000   0.000 -11.409   0.000  -0.002   0.000  -0.000   0.000
  0.000   0.000   0.001   0.000  -0.001   0.000  -6.360   0.000   0.000   0.000  -0.002   0.000 -11.409   0.000   0.000   0.000
  0.008   0.000   0.014   0.000  -0.000   0.000   0.000   0.000  -6.361   0.000  -0.000   0.000   0.000   0.000 -11.410   0.000
 pseudopotential strength for first ion, spin component:           2
 12.558   0.000  21.151   0.000   0.001   0.000   0.000   0.000   0.005   0.000   0.002   0.000   0.000   0.000   0.008   0.000
 21.151   0.000  35.623   0.000   0.002   0.000   0.000   0.000   0.008   0.000   0.004   0.000   0.001   0.000   0.014   0.000
  0.001   0.000   0.002   0.000  -3.539   0.000  -0.001   0.000  -0.000   0.000  -6.361   0.000  -0.001   0.000  -0.000   0.000
  0.000   0.000   0.000   0.000  -0.001   0.000  -3.539   0.000   0.000   0.000  -0.001   0.000  -6.360   0.000   0.000   0.000
  0.005   0.000   0.008   0.000  -0.000   0.000   0.000   0.000  -3.539   0.000  -0.000   0.000   0.000   0.000  -6.361   0.000
  0.002   0.000   0.004   0.000  -6.361   0.000  -0.001   0.000  -0.000   0.000 -11.409   0.000  -0.002   0.000  -0.000   0.000
  0.000   0.000   0.001   0.000  -0.001   0.000  -6.360   0.000   0.000   0.000  -0.002   0.000 -11.409   0.000   0.000   0.000
  0.008   0.000   0.014   0.000  -0.000   0.000   0.000   0.000  -6.361   0.000  -0.000   0.000   0.000   0.000 -11.410   0.000
 total augmentation occupancy for first ion, spin component:           1
  1.013  -0.073   0.117  -0.010   0.540  -0.039   0.008  -0.197
 -0.073   0.366  -0.051   0.006  -0.241   0.011  -0.005   0.066
  0.117  -0.051   2.014   1.194   0.193  -0.250  -0.356  -0.048
 -0.010   0.006   1.194   1.918  -0.250  -0.356  -0.223   0.071
  0.540  -0.241   0.193  -0.250   2.639  -0.048   0.071  -0.383
 -0.039   0.011  -0.250  -0.356  -0.048   0.120   0.046  -0.002
  0.008  -0.005  -0.356  -0.223   0.071   0.046   0.119  -0.008
 -0.197   0.066  -0.048   0.071  -0.383  -0.002  -0.008   0.098
 total augmentation occupancy for first ion, spin component:           2
 -0.000   0.000  -0.000  -0.000   0.000   0.000   0.000  -0.000
  0.000   0.000   0.000  -0.000  -0.000   0.000   0.000   0.000
 -0.000   0.000  -0.000  -0.000  -0.000   0.000   0.000   0.000
 -0.000  -0.000  -0.000  -0.000   0.000   0.000   0.000  -0.000
  0.000  -0.000  -0.000   0.000   0.000   0.000   0.000  -0.000
  0.000   0.000   0.000   0.000   0.000  -0.000  -0.000  -0.000
  0.000   0.000   0.000   0.000   0.000  -0.000   0.000  -0.000
 -0.000   0.000   0.000  -0.000  -0.000  -0.000  -0.000   0.000


------------------------ aborting loop because EDIFF is reached ----------------------------------------


    CHARGE:  cpu time    5.17: real time    5.19
    FORLOC:  cpu time    0.67: real time    0.67
    FORNL :  cpu time   19.35: real time   19.44
    STRESS:  cpu time   61.12: real time   61.35
    FORCOR:  cpu time    4.20: real time    4.22
    FORHAR:  cpu time    1.00: real time    1.00
    MIXING:  cpu time    0.20: real time    0.20
    OFIELD:  cpu time    0.00: real time    0.00

  FORCE on cell =-STRESS in cart. coord.  units (eV):
  Direction    XX          YY          ZZ          XY          YZ          ZX
  --------------------------------------------------------------------------------------
  Alpha Z    12.91688    12.91688    12.91688
  Ewald   11226.60395  5563.55391  6475.87536   409.48109 -1537.92997   901.44609
  Hartree 12564.15285  7787.54233  8756.96468   114.28887 -1425.28462   722.75114
  E(xc)    -688.90267  -691.44174  -692.10260     1.42546    -0.03229     0.64562
  Local  -26160.54450-15756.25834-17658.66242  -500.99464  2962.11731 -1624.90101
  n-local   -28.67971   -28.54234   -32.00511     3.41217    -0.91805    -0.97998
  augment    82.50452    84.39816    83.40588     1.30752     0.81926     0.48969
  Kinetic  2975.78750  3013.67458  3039.52232   -29.60459    -0.01013     0.53029
  Fock        0.00000     0.00000     0.00000     0.00000     0.00000     0.00000
  -------------------------------------------------------------------------------------
  Total     -16.16119   -14.15655   -14.08501    -0.68412    -1.23850    -0.01816
  in kB      -3.23664    -2.83516    -2.82084    -0.13701    -0.24804    -0.00364
  external pressure =       -2.96 kB  Pullay stress =        0.00 kB


 VOLUME and BASIS-vectors are now :
 -----------------------------------------------------------------------------
  energy-cutoff  :      700.00
  volume of cell :     8000.00
      direct lattice vectors                 reciprocal lattice vectors
    20.000000000  0.000000000  0.000000000     0.050000000  0.000000000  0.000000000
     0.000000000 20.000000000  0.000000000     0.000000000  0.050000000  0.000000000
     0.000000000  0.000000000 20.000000000     0.000000000  0.000000000  0.050000000

  length of vectors
    20.000000000 20.000000000 20.000000000     0.050000000  0.050000000  0.050000000


 FORCES acting on ions
    electron-ion (+dipol)            ewald-force                    non-local-force                 convergence-correction
 -----------------------------------------------------------------------------------------------
   0.378E+03 0.107E+03 0.356E+01   -.381E+03 -.108E+03 -.370E+01   0.299E+01 0.818E+00 0.197E+00   -.538E-04 -.336E-04 0.137E-04
   0.874E+02 -.936E+01 0.333E+03   -.880E+02 0.963E+01 -.335E+03   0.602E+00 -.298E+00 0.184E+01   0.553E-05 -.103E-04 -.551E-04
   0.672E+02 0.802E+02 0.318E+03   -.693E+02 -.822E+02 -.325E+03   0.202E+01 0.199E+01 0.635E+01   0.198E-04 -.254E-04 0.382E-04
   0.320E+01 -.318E+03 0.298E+02   -.343E+01 0.325E+03 -.293E+02   0.246E+00 -.694E+01 -.515E+00   0.180E-04 -.457E-04 0.186E-04
   0.359E+02 -.326E+03 0.105E+03   -.362E+02 0.327E+03 -.106E+03   0.315E+00 -.181E+01 0.624E+00   0.155E-04 0.396E-04 -.205E-04
   0.800E+02 -.208E+03 0.263E+03   -.805E+02 0.209E+03 -.265E+03   0.509E+00 -.117E+01 0.142E+01   0.427E-05 0.479E-04 -.698E-04
   0.743E+02 0.267E+03 -.218E+03   -.747E+02 -.269E+03 0.220E+03   0.362E+00 0.150E+01 -.146E+01   0.866E-05 -.410E-04 0.259E-04
   0.150E+03 0.255E+03 -.164E+03   -.154E+03 -.260E+03 0.168E+03   0.372E+01 0.480E+01 -.396E+01   0.238E-04 0.308E-04 -.242E-04
   -.226E+03 0.123E+03 -.137E+03   0.231E+03 -.124E+03 0.140E+03   -.535E+01 0.117E+01 -.282E+01   -.198E-04 0.229E-04 -.410E-04
   -.258E+03 0.143E+03 -.181E+03   0.259E+03 -.144E+03 0.183E+03   -.125E+01 0.129E+01 -.170E+01   0.312E-04 -.682E-05 -.153E-04
   -.338E+03 -.697E+02 -.898E+00   0.339E+03 0.703E+02 0.817E+00   -.192E+01 -.529E+00 0.591E-01   0.390E-04 0.200E-04 -.730E-05
   -.258E+03 -.192E+03 0.137E+03   0.259E+03 0.194E+03 -.138E+03   -.157E+01 -.122E+01 0.753E+00   0.327E-04 0.265E-04 -.236E-04
   -.181E+03 -.214E+03 0.187E+03   0.185E+03 0.219E+03 -.191E+03   -.347E+01 -.514E+01 0.408E+01   -.351E-04 -.447E-04 0.188E-04
   -.265E+03 0.635E+02 -.921E+02   0.270E+03 -.655E+02 0.951E+02   -.494E+01 0.196E+01 -.297E+01   -.586E-04 0.108E-04 -.390E-04
   -.314E+03 0.611E+02 -.112E+03   0.317E+03 -.610E+02 0.113E+03   -.236E+01 -.161E+00 -.402E+00   -.857E-05 -.177E-04 0.466E-05
   -.122E+03 0.232E+03 -.238E+03   0.123E+03 -.233E+03 0.240E+03   -.647E+00 0.136E+01 -.155E+01   0.301E-04 -.505E-04 0.308E-04
   0.269E+03 -.310E+02 -.105E+03   -.272E+03 0.335E+02 0.108E+03   0.344E+01 -.246E+01 -.302E+01   -.975E-05 0.564E-04 0.425E-04
   0.127E+03 -.218E+03 -.261E+03   -.127E+03 0.219E+03 0.263E+03   0.565E+00 -.147E+01 -.174E+01   -.278E-04 0.431E-04 0.422E-04
   -.746E+02 -.256E+03 -.246E+03   0.751E+02 0.257E+03 0.248E+03   -.488E+00 -.150E+01 -.154E+01   -.818E-05 0.355E-04 0.295E-04
   -.158E+03 -.237E+03 -.197E+03   0.162E+03 0.242E+03 0.201E+03   -.433E+01 -.479E+01 -.413E+01   0.752E-05 -.170E-04 -.774E-05
   0.232E+03 -.962E+02 -.158E+03   -.237E+03 0.979E+02 0.161E+03   0.494E+01 -.162E+01 -.318E+01   -.290E-05 0.131E-04 0.677E-05
   0.265E+03 -.125E+03 -.201E+03   -.265E+03 0.126E+03 0.203E+03   0.893E+00 -.147E+01 -.193E+01   -.218E-04 0.793E-05 0.316E-05
   0.144E+03 0.265E+03 0.194E+03   -.146E+03 -.270E+03 -.198E+03   0.176E+01 0.486E+01 0.437E+01   -.337E-05 -.405E-04 -.543E-04
   0.235E+03 0.229E+03 0.150E+03   -.234E+03 -.232E+03 -.153E+03   -.167E+01 0.377E+01 0.400E+01   -.291E-04 -.485E-04 -.430E-04
   0.318E+03 -.423E+02 -.123E+03   -.319E+03 0.451E+02 0.125E+03   -.406E-01 -.352E+01 -.336E+01   -.479E-05 0.193E-04 0.383E-04
   0.451E+02 0.805E+02 -.636E+02   -.487E+02 -.843E+02 0.665E+02   0.362E+01 0.381E+01 -.289E+01   -.513E-06 -.204E-04 0.146E-04
   -.418E+02 0.694E+02 -.756E+02   0.442E+02 -.731E+02 0.798E+02   -.243E+01 0.361E+01 -.418E+01   0.104E-04 -.236E-04 0.187E-04
   -.992E+02 0.278E+02 -.485E+02   0.105E+03 -.275E+02 0.497E+02   -.582E+01 -.257E+00 -.125E+01   0.108E-04 -.820E-05 0.272E-05
   -.408E+02 0.149E+03 0.159E+02   0.427E+02 -.157E+03 -.126E+02   -.180E+01 0.756E+01 -.335E+01   -.459E-05 0.244E-04 0.884E-06
   0.101E+03 -.227E+02 -.519E+02   -.107E+03 0.223E+02 0.532E+02   0.580E+01 0.386E+00 -.123E+01   -.389E-05 0.712E-05 0.791E-05
   0.797E+02 0.679E+02 -.318E+02   -.855E+02 -.680E+02 0.305E+02   0.584E+01 0.144E+00 0.131E+01   0.161E-05 0.240E-05 -.233E-05
   0.266E+02 -.664E+02 0.814E+02   -.281E+02 0.701E+02 -.859E+02   0.154E+01 -.372E+01 0.448E+01   -.371E-05 0.234E-04 -.320E-04
   0.585E+01 -.110E+03 0.887E+01   -.581E+01 0.116E+03 -.780E+01   -.369E-01 -.588E+01 -.107E+01   0.194E-05 0.271E-04 -.815E-05
   -.143E+02 -.101E+03 -.344E+02   0.158E+02 0.103E+03 0.398E+02   -.155E+01 -.210E+01 -.539E+01   0.339E-05 -.616E-05 0.832E-05
   -.101E+03 0.258E+02 0.116E+03   0.108E+03 -.235E+02 -.121E+03   -.652E+01 -.228E+01 0.485E+01   -.135E-04 0.519E-05 0.184E-04
   -.914E+02 0.385E+02 -.535E+02   0.947E+02 -.417E+02 0.573E+02   -.330E+01 0.324E+01 -.376E+01   0.722E-05 -.573E-05 0.343E-05
   -.660E+02 -.714E+02 0.547E+02   0.685E+02 0.756E+02 -.581E+02   -.245E+01 -.426E+01 0.345E+01   0.150E-04 0.108E-04 -.836E-05
   0.173E+02 0.710E+02 0.885E+02   -.173E+02 -.769E+02 -.893E+02   0.330E-01 0.595E+01 0.732E+00   0.346E-05 -.938E-05 0.384E-05
   0.362E+01 0.905E+02 0.776E+02   -.362E-01 -.936E+02 -.813E+02   -.367E+01 0.301E+01 0.377E+01   -.216E-05 -.167E-05 -.437E-05
   0.599E+02 0.781E+02 0.581E+02   -.622E+02 -.824E+02 -.617E+02   0.224E+01 0.434E+01 0.365E+01   -.867E-05 -.125E-04 -.941E-05
   -.105E+03 -.197E+02 -.451E+01   0.111E+03 0.206E+02 0.498E+01   -.592E+01 -.949E+00 -.467E+00   0.231E-04 0.944E-05 -.237E-05
   -.837E+02 -.640E+02 -.382E+02   0.896E+02 0.643E+02 0.369E+02   -.590E+01 -.248E+00 0.130E+01   -.208E-05 -.746E-05 -.323E-05
   0.285E+02 0.211E+02 0.104E+03   -.300E+02 -.235E+02 -.110E+03   0.152E+01 0.241E+01 0.526E+01   -.283E-05 -.253E-05 -.297E-04
   -.454E+02 -.784E+02 -.699E+02   0.490E+02 0.821E+02 0.729E+02   -.359E+01 -.374E+01 -.305E+01   -.340E-05 0.145E-04 0.135E-04
   0.945E+02 -.342E+02 -.553E+02   -.980E+02 0.373E+02 0.590E+02   0.343E+01 -.322E+01 -.382E+01   -.720E-06 0.201E-05 0.856E-05
   0.112E+03 0.265E+02 -.275E+01   -.117E+03 -.274E+02 0.300E+01   0.618E+01 0.113E+01 -.320E+00   -.115E-04 -.108E-04 0.180E-05
   -.229E+02 -.759E+02 0.739E+02   0.195E+02 0.790E+02 -.777E+02   0.343E+01 -.318E+01 0.379E+01   0.165E-05 -.461E-05 0.267E-06
   0.431E+02 -.659E+02 -.805E+02   -.456E+02 0.693E+02 0.848E+02   0.248E+01 -.343E+01 -.431E+01   -.924E-05 0.180E-04 0.199E-04
   0.299E+02 -.139E+03 0.222E+03   -.249E+02 0.127E+03 -.208E+03   -.498E+01 0.121E+02 -.148E+02   0.377E-04 -.731E-04 0.666E-04
   0.230E+03 0.163E+03 0.619E+02   -.208E+03 -.159E+03 -.636E+02   -.215E+02 -.373E+01 0.158E+01   0.373E-04 0.313E-04 -.252E-05
   -.416E+02 0.233E+03 -.159E+03   0.333E+02 -.222E+03 0.146E+03   0.839E+01 -.115E+02 0.131E+02   0.268E-04 0.666E-04 -.638E-04
   0.380E+02 -.197E+03 -.198E+03   -.298E+02 0.187E+03 0.185E+03   -.819E+01 0.937E+01 0.126E+02   0.757E-05 -.217E-04 -.679E-05
   -.252E+03 -.954E+02 0.677E+02   0.232E+03 0.931E+02 -.694E+02   0.198E+02 0.233E+01 0.168E+01   -.652E-04 -.548E-04 0.735E-05
   -.124E+03 0.404E+03 0.422E+03   0.843E+02 -.387E+03 -.424E+03   0.393E+02 -.173E+02 0.243E+01   0.964E-05 0.796E-04 0.780E-04
   -.779E+02 0.129E+03 0.228E+03   0.767E+02 -.127E+03 -.225E+03   0.744E+00 -.310E+01 -.393E+01   0.197E-03 -.370E-04 -.275E-04
 -----------------------------------------------------------------------------------------------
   -.210E+02 0.201E+02 0.408E+00   -.213E-12 0.853E-13 -.369E-12   0.210E+02 -.201E+02 -.405E+00   0.215E-03 0.143E-04 -.137E-04
 
 
 POSITION                                       TOTAL-FORCE (eV/Angst)
 -----------------------------------------------------------------------------------
      5.28440      8.55710     10.56432         0.192081      0.096006      0.053432
      8.75875     11.31222      6.55140        -0.016475     -0.024933     -0.003271
      9.11624     10.48468      7.61029         0.000923     -0.014731     -0.001710
      9.47459     12.30603      8.99730         0.013202      0.004884      0.024254
      9.11904     13.19266      7.98704        -0.000571      0.013186      0.009195
      8.75715     12.69444      6.73519         0.006544      0.001776      0.011197
     10.46158      6.59100     13.49490        -0.008139     -0.005746      0.005303
      9.94203      7.43809     12.52376         0.020833      0.021123     -0.028380
     12.04547      8.38666     12.11872        -0.015895     -0.000765      0.003527
     12.61928      7.55238     13.08448        -0.002129      0.012478     -0.009470
     14.79299     10.57118     10.69264        -0.023789      0.014471     -0.021349
     14.01643     11.32257      9.80881         0.026509     -0.009256      0.015952
     12.65158     11.07272      9.73048        -0.072185      0.001527     -0.019934
     12.79043      9.38554     11.34657        -0.029188     -0.002902     -0.002809
     14.16878      9.59490     11.46294        -0.014513     -0.002988      0.001713
     11.82695      6.64488     13.78060        -0.018550      0.000675     -0.006473
      7.24231      9.77330     11.28348        -0.029471      0.091130      0.102059
      8.15819     12.44233     13.81164        -0.001511      0.021425      0.022161
      9.52399     12.52132     13.53212        -0.050963      0.004311      0.016759
     10.05904     11.71816     12.53361        -0.004576     -0.056206     -0.055680
      7.96508     10.76003     12.08522        -0.047203      0.062070      0.067558
      7.38092     11.55121     13.07965        -0.035419     -0.032844     -0.026134
      7.45796      8.11597      9.64469        -0.169439     -0.039466     -0.002979
      6.09730      7.83470      9.68863        -0.410723      0.474594      0.543634
      5.86694      9.53439     11.36602        -0.374255     -0.705427     -0.595632
      9.79795      5.90212     14.01497         0.000297     -0.004807      0.004141
     12.26685      5.99367     14.53463        -0.000558     -0.004576      0.004485
     13.68484      7.61538     13.29576        -0.003101     -0.000097      0.002075
     10.84507      7.24677      9.22597         0.036720     -0.023556     -0.006991
      6.31582     11.46138     13.28407        -0.011802      0.034437      0.034143
      8.88327      7.42377     12.27295         0.004113     -0.023299      0.019409
      8.47853     13.36665      5.92453         0.000443      0.006004     -0.003612
      9.12855     14.26265      8.19005         0.005998      0.001413     -0.000006
      9.76183     12.67176      9.98145         0.007979      0.014731     -0.008515
     11.38256      8.36174      8.29610         0.012447     -0.007809     -0.031875
     14.75349      8.99278     12.15530         0.000458      0.000932      0.001194
     14.45552     12.09620      9.18096        -0.002247      0.002437     -0.004887
      9.11405      9.40258      7.49376         0.013910     -0.006333     -0.021345
      8.12287      7.57771      8.97051        -0.084945     -0.028416     -0.009208
      5.68876      7.06123      9.04041        -0.156445      0.048618      0.083709
     15.86530     10.74076     10.77851         0.000243      0.003405      0.001181
     11.11794     11.75383     12.28812         0.000370     -0.001946      0.000137
      8.48240     10.86572      5.59722        -0.001764      0.000194      0.000362
     10.17895     13.19691     14.08003        -0.000051      0.006090      0.004062
      5.25320     10.11370     12.05309        -0.117083     -0.105775     -0.078711
      4.21445      8.36275     10.62101         1.158578      0.207190     -0.065826
     12.01813     11.63958      9.05085         0.012298      0.003478     -0.005285
      7.70887     13.05934     14.58823        -0.004761      0.003474      0.004365
      9.48490     10.95884      8.82805         0.021560      0.091706     -0.093914
      8.03610      9.06122     10.42169         0.449351      0.071256     -0.070060
     10.70414      8.32170     11.83465         0.114304     -0.070870      0.087417
      9.30896     10.85100     11.80824         0.023005     -0.043564     -0.027691
     12.02768     10.13012     10.47953         0.124483      0.028731      0.011747
     10.61480      8.11252      8.84309        -0.034281      0.038447      0.064173
     10.01771      9.61740     10.38685        -0.504614     -0.165885      0.002405
 -----------------------------------------------------------------------------------
    total drift:                                0.006829     -0.003490      0.002660


--------------------------------------------------------------------------------------------------------



  FREE ENERGIE OF THE ION-ELECTRON SYSTEM (eV)
  ---------------------------------------------------
  free  energy   TOTEN  =      -377.43730277 eV

  energy  without entropy=     -377.43730277  energy(sigma->0) =     -377.43730277
 


--------------------------------------------------------------------------------------------------------


    POTLOK:  cpu time    7.45: real time    7.50


--------------------------------------------------------------------------------------------------------


 writing wavefunctions
     LOOP+:  cpu time 1009.98: real time 1049.88
    4ORBIT:  cpu time    0.00: real time    0.00

 total amount of memory used by VASP on root node   877132. kBytes
========================================================================

   base      :      30000. kBytes
   nonlr-proj:      19361. kBytes
   fftplans  :     269516. kBytes
   grid      :     534988. kBytes
   one-center:       1710. kBytes
   wavefun   :      21557. kBytes
 
  
  
 General timing and accounting informations for this job:
 ========================================================
  
                  Total CPU time used (sec):     1270.280
                            User time (sec):     1117.787
                          System time (sec):      152.493
                         Elapsed time (sec):     1314.020
  
                   Maximum memory used (kb):     1490084.
                   Average memory used (kb):           0.
  
                          Minor page faults:      6844367
                          Major page faults:            3
                 Voluntary context switches:       274721
