<?xml version="1.0" encoding="ISO-8859-1"?>
<modeling>
 <generator>
  <i name="program" type="string">vasp </i>
  <i name="version" type="string">5.3.5  </i>
  <i name="subversion" type="string">31Mar14 (build Apr 08 2014 12:00:03) complex                          parallel </i>
  <i name="platform" type="string">NSC-NSCPATCH-BUILD02 </i>
  <i name="date" type="string">2017 03 15 </i>
  <i name="time" type="string">19:01:24 </i>
 </generator>
 <incar>
  <i type="string" name="SYSTEM"> c2_oh2_ruthenium_mol</i>
  <i type="int" name="ISTART">     0</i>
  <i type="string" name="PREC">accurate</i>
  <i type="int" name="IALGO">    38</i>
  <i type="logical" name="ADDGRID"> T  </i>
  <i type="int" name="ISPIN">     2</i>
  <i name="BMIX">      2.00000000</i>
  <i type="int" name="ICHARG">     2</i>
  <i name="EDIFF">      0.00001000</i>
  <i name="EDIFFG">     -0.01000000</i>
  <i name="ENCUT">    700.00000000</i>
  <i name="POTIM">      0.50000000</i>
  <i name="NUPDOWN">      0.00000000</i>
  <i name="NELECT">    166.00000000</i>
  <i type="string" name="LREAL"> Auto</i>
  <i name="TIME">      0.05000000</i>
  <i type="int" name="ISMEAR">     0</i>
  <i name="SIGMA">      0.01000000</i>
  <i type="int" name="ICORELEVEL">     2</i>
  <i type="int" name="CLNT">     1</i>
  <i type="int" name="CLN">     1</i>
  <i type="int" name="INCAR     ">     0</i>
  <i name="CLZ">      0.50000000</i>
 </incar>
 <kpoints>
  <generation param="Monkhorst-Pack">
   <v type="int" name="divisions">       1        1        1 </v>
   <v name="usershift">      0.00000000       0.00000000       0.00000000 </v>
   <v name="genvec1">      1.00000000       0.00000000       0.00000000 </v>
   <v name="genvec2">      0.00000000       1.00000000       0.00000000 </v>
   <v name="genvec3">      0.00000000       0.00000000       1.00000000 </v>
   <v name="shift">      0.00000000       0.00000000       0.00000000 </v>
  </generation>
  <varray name="kpointlist" >
   <v>       0.00000000       0.00000000       0.00000000 </v>
  </varray>
  <varray name="weights" >
   <v>       1.00000000 </v>
  </varray>
 </kpoints>
 <parameters>
  <separator name="general" >
   <i type="string" name="SYSTEM">c2_oh2_ruthenium_mol</i>
   <i type="logical" name="LCOMPAT"> F  </i>
  </separator>
  <separator name="electronic" >
   <i type="string" name="PREC">accura</i>
   <i name="ENMAX">    700.00000000</i>
   <i name="ENAUG">    946.76800000</i>
   <i name="EDIFF">      0.00001000</i>
   <i type="int" name="IALGO">    38</i>
   <i type="int" name="IWAVPR">    10</i>
   <i type="int" name="NBANDS">   128</i>
   <i name="NELECT">    166.00000000</i>
   <i type="int" name="TURBO">     0</i>
   <i type="int" name="IRESTART">     0</i>
   <i type="int" name="NREBOOT">     0</i>
   <i type="int" name="NMIN">     0</i>
   <i name="EREF">      0.00000000</i>
   <separator name="electronic smearing" >
    <i type="int" name="ISMEAR">     0</i>
    <i name="SIGMA">      0.01000000</i>
    <i name="KSPACING">      0.50000000</i>
    <i type="logical" name="KGAMMA"> T  </i>
   </separator>
   <separator name="electronic projectors" >
    <i type="logical" name="LREAL"> T  </i>
    <v name="ROPT">     -0.00025000     -0.00025000     -0.00025000     -0.00025000     -0.00025000     -0.00025000</v>
    <i type="int" name="LMAXPAW">  -100</i>
    <i type="int" name="LMAXMIX">     2</i>
    <i type="logical" name="NLSPLINE"> F  </i>
   </separator>
   <separator name="electronic startup" >
    <i type="int" name="ISTART">     0</i>
    <i type="int" name="ICHARG">     2</i>
    <i type="int" name="INIWAV">     1</i>
   </separator>
   <separator name="electronic spin" >
    <i type="int" name="ISPIN">     2</i>
    <i type="logical" name="LNONCOLLINEAR"> F  </i>
    <v name="MAGMOM">      0.00000000      0.00000000      0.00000000      0.00000000      0.00000000      0.00000000      0.00000000      0.00000000      0.00000000      0.00000000      0.00000000      0.00000000      0.00000000      0.00000000      0.00000000      0.00000000      0.00000000      0.00000000      0.00000000      0.00000000
      0.00000000      0.00000000      0.00000000      0.00000000      0.00000000      0.00000000      0.00000000      0.00000000      0.00000000      0.00000000      0.00000000      0.00000000      0.00000000      0.00000000      0.00000000      0.00000000      0.00000000      0.00000000      0.00000000      0.00000000
      0.00000000      0.00000000      0.00000000      0.00000000      0.00000000      0.00000000      0.00000000      0.00000000      0.00000000      0.00000000      0.00000000      0.00000000      0.00000000      0.00000000      0.00000000</v>
    <i name="NUPDOWN">      0.00000000</i>
    <i type="logical" name="LSORBIT"> F  </i>
    <v name="SAXIS">      0.00000000      0.00000000      1.00000000</v>
    <i type="logical" name="LSPIRAL"> F  </i>
    <v name="QSPIRAL">      0.00000000      0.00000000      0.00000000</v>
    <i type="logical" name="LZEROZ"> F  </i>
   </separator>
   <separator name="electronic exchange-correlation" >
    <i type="logical" name="LASPH"> F  </i>
    <i type="logical" name="LMETAGGA"> F  </i>
   </separator>
   <separator name="electronic convergence" >
    <i type="int" name="NELM">    60</i>
    <i type="int" name="NELMDL">    -5</i>
    <i type="int" name="NELMIN">     2</i>
    <i name="ENINI">    700.00000000</i>
    <separator name="electronic convergence detail" >
     <i type="logical" name="LDIAG"> T  </i>
     <i type="logical" name="LSUBROT"> F  </i>
     <i name="WEIMIN">      0.00000000</i>
     <i name="EBREAK">      0.00000002</i>
     <i name="DEPER">      0.30000000</i>
     <i type="int" name="NRMM">     4</i>
     <i name="TIME">      0.05000000</i>
    </separator>
   </separator>
   <separator name="electronic mixer" >
    <i name="AMIX">      0.40000000</i>
    <i name="BMIX">      2.00000000</i>
    <i name="AMIN">      0.10000000</i>
    <i name="AMIX_MAG">      1.60000000</i>
    <i name="BMIX_MAG">      2.00000000</i>
    <separator name="electronic mixer details" >
     <i type="int" name="IMIX">     4</i>
     <i type="int" name="MAXMIX">   -45</i>
     <i name="WC">    100.00000000</i>
     <i type="int" name="INIMIX">     1</i>
     <i type="int" name="MIXPRE">     1</i>
     <i type="int" name="MREMOVE">     5</i>
    </separator>
   </separator>
   <separator name="electronic dipolcorrection" >
    <i type="logical" name="LDIPOL"> F  </i>
    <i type="logical" name="LMONO"> F  </i>
    <i type="int" name="IDIPOL">     0</i>
    <i name="EPSILON">      1.00000000</i>
    <v name="DIPOL">   -100.00000000   -100.00000000   -100.00000000</v>
    <i name="EFIELD">      0.00000000</i>
   </separator>
  </separator>
  <separator name="grids" >
   <i type="int" name="NGX">   180</i>
   <i type="int" name="NGY">   180</i>
   <i type="int" name="NGZ">   180</i>
   <i type="int" name="NGXF">   360</i>
   <i type="int" name="NGYF">   360</i>
   <i type="int" name="NGZF">   360</i>
   <i type="logical" name="ADDGRID"> T  </i>
  </separator>
  <separator name="ionic" >
   <i type="int" name="NSW">     0</i>
   <i type="int" name="IBRION">    -1</i>
   <i type="int" name="ISIF">     2</i>
   <i name="PSTRESS">      0.00000000</i>
   <i name="EDIFFG">     -0.01000000</i>
   <i type="int" name="NFREE">     0</i>
   <i name="POTIM">      0.50000000</i>
   <i name="SMASS">     -3.00000000</i>
   <i name="SCALEE">      1.00000000</i>
  </separator>
  <separator name="ionic md" >
   <i name="TEBEG">      0.00010000</i>
   <i name="TEEND">      0.00010000</i>
   <i type="int" name="NBLOCK">     1</i>
   <i type="int" name="KBLOCK">     1</i>
   <i type="int" name="NPACO">   256</i>
   <i name="APACO">     16.00000000</i>
  </separator>
  <separator name="symmetry" >
   <i type="int" name="ISYM">     2</i>
   <i name="SYMPREC">      0.00001000</i>
  </separator>
  <separator name="dos" >
   <i type="logical" name="LORBIT"> F  </i>
   <v name="RWIGS">     -1.00000000     -1.00000000     -1.00000000     -1.00000000     -1.00000000     -1.00000000</v>
   <i type="int" name="NEDOS">   301</i>
   <i name="EMIN">     10.00000000</i>
   <i name="EMAX">    -10.00000000</i>
   <i name="EFERMI">      0.00000000</i>
  </separator>
  <separator name="writing" >
   <i type="int" name="NWRITE">     2</i>
   <i type="logical" name="LWAVE"> T  </i>
   <i type="logical" name="LCHARG"> T  </i>
   <i type="logical" name="LPARD"> F  </i>
   <i type="logical" name="LVTOT"> F  </i>
   <i type="logical" name="LVHAR"> F  </i>
   <i type="logical" name="LELF"> F  </i>
   <i type="logical" name="LOPTICS"> F  </i>
   <v name="STM">      0.00000000      0.00000000      0.00000000      0.00000000      0.00000000      0.00000000      0.00000000</v>
  </separator>
  <separator name="performance" >
   <i type="int" name="NPAR">    64</i>
   <i type="int" name="NSIM">     4</i>
   <i type="int" name="NBLK">    -1</i>
   <i type="logical" name="LPLANE"> T  </i>
   <i type="logical" name="LSCALAPACK"> T  </i>
   <i type="logical" name="LSCAAWARE"> F  </i>
   <i type="logical" name="LSCALU"> F  </i>
   <i type="logical" name="LASYNC"> F  </i>
   <i type="logical" name="LORBITALREAL"> F  </i>
  </separator>
  <separator name="miscellaneous" >
   <i type="int" name="IDIOT">     3</i>
   <i type="logical" name="LMUSIC"> F  </i>
   <v name="POMASS">     12.01100000     12.01100000      1.00000000     14.00100000     16.00000000    101.07000000</v>
   <v name="DARWINR">      0.00000000      0.00000000      0.00000000      0.00000000      0.00000000      0.00000000</v>
   <v name="DARWINV">      1.00000000      1.00000000      1.00000000      1.00000000      1.00000000      1.00000000</v>
   <i type="logical" name="LCORR"> T  </i>
  </separator>
  <i type="logical" name="GGA_COMPAT"> T  </i>
  <i type="logical" name="LBERRY"> F  </i>
  <i type="int" name="ICORELEVEL">     2</i>
  <i type="int" name="CLNT">     1</i>
  <i type="int" name="CLN">     1</i>
  <i type="int" name="CLL">     0</i>
  <i name="CLZ">      0.50000000</i>
  <i type="logical" name="LDAU"> F  </i>
  <i type="int" name="I_CONSTRAINED_M">     0</i>
  <separator name="electronic exchange-correlation" >
   <i type="string" name="GGA">--</i>
   <i type="int" name="VOSKOWN">     0</i>
   <i type="logical" name="LHFCALC"> F  </i>
   <i type="string" name="PRECFOCK"></i>
   <i type="logical" name="LSYMGRAD"> F  </i>
   <i type="logical" name="LHFONE"> F  </i>
   <i type="logical" name="LRHFCALC"> F  </i>
   <i type="logical" name="LTHOMAS"> F  </i>
   <i type="logical" name="LMODELHF"> F  </i>
   <i name="ENCUT4O">     -1.00000000</i>
   <i type="int" name="EXXOEP">     0</i>
   <i type="int" name="FOURORBIT">     0</i>
   <i name="AEXX">      0.00000000</i>
   <i name="HFALPHA">      0.00000000</i>
   <i name="MCALPHA">      0.00000000</i>
   <i name="ALDAX">      1.00000000</i>
   <i name="AGGAX">      1.00000000</i>
   <i name="ALDAC">      1.00000000</i>
   <i name="AGGAC">      1.00000000</i>
   <i type="int" name="NKREDX">     1</i>
   <i type="int" name="NKREDY">     1</i>
   <i type="int" name="NKREDZ">     1</i>
   <i type="logical" name="SHIFTRED"> F  </i>
   <i type="logical" name="ODDONLY"> F  </i>
   <i type="logical" name="EVENONLY"> F  </i>
   <i type="int" name="LMAXFOCK">     0</i>
   <i type="int" name="NMAXFOCKAE">     0</i>
   <i type="logical" name="LFOCKAEDFT"> F  </i>
   <i name="HFSCREEN">      0.00000000</i>
   <i name="HFSCREENC">      0.00000000</i>
   <i type="int" name="NBANDSGWLOW">     0</i>
  </separator>
  <separator name="vdW DFT" >
   <i type="logical" name="LUSE_VDW"> F  </i>
   <i name="Zab_VDW">     -0.84910000</i>
   <i name="PARAM1">      0.12340000</i>
   <i name="PARAM2">      1.00000000</i>
   <i name="PARAM3">      0.00000000</i>
  </separator>
  <separator name="model GW" >
   <i type="int" name="MODEL_GW">     0</i>
   <i name="MODEL_EPS0">     87.27272727</i>
   <i name="MODEL_ALPHA">      1.00000000</i>
  </separator>
  <separator name="linear response parameters" >
   <i type="logical" name="LEPSILON"> F  </i>
   <i type="logical" name="LRPA"> F  </i>
   <i type="logical" name="LNABLA"> F  </i>
   <i type="logical" name="LVEL"> F  </i>
   <i type="int" name="KINTER">     0</i>
   <i name="CSHIFT">      0.10000000</i>
   <i name="OMEGAMAX">     -1.00000000</i>
   <i name="DEG_THRESHOLD">      0.00200000</i>
  </separator>
  <separator name="orbital magnetization" >
   <i type="logical" name="NUCIND"> F  </i>
   <v name="MAGPOS">      0.00000000      0.00000000      0.00000000</v>
   <i type="logical" name="LNICSALL"> T  </i>
   <i type="logical" name="ORBITALMAG"> F  </i>
   <i type="logical" name="LMAGBLOCH"> F  </i>
   <i type="logical" name="LCHIMAG"> F  </i>
   <i type="logical" name="LGAUGE"> T  </i>
   <i type="int" name="MAGATOM">     0</i>
   <v name="MAGDIPOL">      0.00000000      0.00000000      0.00000000</v>
   <v name="AVECCONST">      0.00000000      0.00000000      0.00000000</v>
  </separator>
  <separator name="response functions" >
   <i type="logical" name="LADDER"> F  </i>
   <i type="logical" name="LFXC"> F  </i>
   <i type="logical" name="LHARTREE"> T  </i>
   <i type="int" name="IBSE">     0</i>
   <i type="logical" name="LTCTE"> F  </i>
   <i type="logical" name="LTETE"> F  </i>
   <i type="logical" name="LTRIPLET"> F  </i>
   <i type="logical" name="LFXCEPS"> F  </i>
   <i type="logical" name="LFXHEG"> F  </i>
   <i type="logical" name="L2ORDER"> F  </i>
   <i type="logical" name="LUSEW"> F  </i>
   <i name="ENCUTGW">     -2.00000000</i>
   <i name="ENCUTGWSOFT">     -2.00000000</i>
   <i name="ENCUTLF">     -1.00000000</i>
   <i type="int" name="LMAXMP2">    -1</i>
   <i name="SCISSOR">      0.00000000</i>
   <i type="int" name="NOMEGA">     0</i>
   <i type="int" name="NOMEGAR">     0</i>
   <i type="int" name="NBANDSGW">    -1</i>
   <i type="int" name="NBANDSO">    -1</i>
   <i type="int" name="NBANDSV">    -1</i>
   <i type="int" name="NELM">     1</i>
   <i type="int" name="DIM">     3</i>
   <i type="int" name="ANTIRES">     0</i>
   <i name="OMEGAMAX">    -30.00000000</i>
   <i name="OMEGAMIN">    -30.00000000</i>
   <i name="OMEGATL">   -200.00000000</i>
   <i type="int" name="OMEGAGRID">     0</i>
   <i name="CSHIFT">     -0.10000000</i>
   <i type="logical" name="SELFENERGY"> F  </i>
   <i type="logical" name="LSPECTRAL"> F  </i>
   <i type="logical" name="ODDONLYGW"> F  </i>
   <i type="logical" name="EVENONLYGW"> F  </i>
   <i type="int" name="NKREDLFX">     1</i>
   <i type="int" name="NKREDLFY">     1</i>
   <i type="int" name="NKREDLFZ">     1</i>
   <i type="int" name="MAXMEM">  1800</i>
   <i type="int" name="TELESCOPE">     0</i>
   <i type="int" name="TAUPAR">     1</i>
  </separator>
  <separator name="External order field" >
   <i name="OFIELD_KAPPA">      0.00000000</i>
   <v name="OFIELD_K">      0.00000000      0.00000000      0.00000000</v>
   <i name="OFIELD_Q6_NEAR">      0.00000000</i>
   <i name="OFIELD_Q6_FAR">      0.00000000</i>
   <i name="OFIELD_A">      0.00000000</i>
  </separator>
 </parameters>
 <atominfo>
  <atoms>      55 </atoms>
  <types>       6 </types>
  <array name="atoms" >
   <dimension dim="1">ion</dimension>
   <field type="string">element</field>
   <field type="int">atomtype</field>
   <set>
    <rc><c>C </c><c>   1</c></rc>
    <rc><c>C </c><c>   2</c></rc>
    <rc><c>C </c><c>   2</c></rc>
    <rc><c>C </c><c>   2</c></rc>
    <rc><c>C </c><c>   2</c></rc>
    <rc><c>C </c><c>   2</c></rc>
    <rc><c>C </c><c>   2</c></rc>
    <rc><c>C </c><c>   2</c></rc>
    <rc><c>C </c><c>   2</c></rc>
    <rc><c>C </c><c>   2</c></rc>
    <rc><c>C </c><c>   2</c></rc>
    <rc><c>C </c><c>   2</c></rc>
    <rc><c>C </c><c>   2</c></rc>
    <rc><c>C </c><c>   2</c></rc>
    <rc><c>C </c><c>   2</c></rc>
    <rc><c>C </c><c>   2</c></rc>
    <rc><c>C </c><c>   2</c></rc>
    <rc><c>C </c><c>   2</c></rc>
    <rc><c>C </c><c>   2</c></rc>
    <rc><c>C </c><c>   2</c></rc>
    <rc><c>C </c><c>   2</c></rc>
    <rc><c>C </c><c>   2</c></rc>
    <rc><c>C </c><c>   2</c></rc>
    <rc><c>C </c><c>   2</c></rc>
    <rc><c>C </c><c>   2</c></rc>
    <rc><c>H </c><c>   3</c></rc>
    <rc><c>H </c><c>   3</c></rc>
    <rc><c>H </c><c>   3</c></rc>
    <rc><c>H </c><c>   3</c></rc>
    <rc><c>H </c><c>   3</c></rc>
    <rc><c>H </c><c>   3</c></rc>
    <rc><c>H </c><c>   3</c></rc>
    <rc><c>H </c><c>   3</c></rc>
    <rc><c>H </c><c>   3</c></rc>
    <rc><c>H </c><c>   3</c></rc>
    <rc><c>H </c><c>   3</c></rc>
    <rc><c>H </c><c>   3</c></rc>
    <rc><c>H </c><c>   3</c></rc>
    <rc><c>H </c><c>   3</c></rc>
    <rc><c>H </c><c>   3</c></rc>
    <rc><c>H </c><c>   3</c></rc>
    <rc><c>H </c><c>   3</c></rc>
    <rc><c>H </c><c>   3</c></rc>
    <rc><c>H </c><c>   3</c></rc>
    <rc><c>H </c><c>   3</c></rc>
    <rc><c>H </c><c>   3</c></rc>
    <rc><c>H </c><c>   3</c></rc>
    <rc><c>H </c><c>   3</c></rc>
    <rc><c>N </c><c>   4</c></rc>
    <rc><c>N </c><c>   4</c></rc>
    <rc><c>N </c><c>   4</c></rc>
    <rc><c>N </c><c>   4</c></rc>
    <rc><c>N </c><c>   4</c></rc>
    <rc><c>O </c><c>   5</c></rc>
    <rc><c>Ru</c><c>   6</c></rc>
   </set>
  </array>
  <array name="atomtypes" >
   <dimension dim="1">type</dimension>
   <field type="int">atomspertype</field>
   <field type="string">element</field>
   <field>mass</field>
   <field>valence</field>
   <field type="string">pseudopotential</field>
   <set>
    <rc><c>   1</c><c>C </c><c>     12.01100000</c><c>      4.50000000</c><c>  PAW_PBE C_h 06Feb2004                 </c></rc>
    <rc><c>  24</c><c>C </c><c>     12.01100000</c><c>      4.00000000</c><c>  PAW_PBE C_h 06Feb2004                 </c></rc>
    <rc><c>  23</c><c>H </c><c>      1.00000000</c><c>      1.00000000</c><c>  PAW_PBE H 15Jun2001                   </c></rc>
    <rc><c>   5</c><c>N </c><c>     14.00100000</c><c>      5.00000000</c><c>  PAW_PBE N_h 06Feb2004                 </c></rc>
    <rc><c>   1</c><c>O </c><c>     16.00000000</c><c>      6.00000000</c><c>  PAW_PBE O_h 06Feb2004                 </c></rc>
    <rc><c>   1</c><c>Ru</c><c>    101.07000000</c><c>     14.00000000</c><c>  PAW_PBE Ru_pv 28Jan2005               </c></rc>
   </set>
  </array>
 </atominfo>
 <structure name="initialpos" >
  <crystal>
   <varray name="basis" >
    <v>      20.00000000       0.00000000       0.00000000 </v>
    <v>       0.00000000      20.00000000       0.00000000 </v>
    <v>       0.00000000       0.00000000      20.00000000 </v>
   </varray>
   <i name="volume">   8000.00000000 </i>
   <varray name="rec_basis" >
    <v>       0.05000000       0.00000000       0.00000000 </v>
    <v>       0.00000000       0.05000000       0.00000000 </v>
    <v>       0.00000000       0.00000000       0.05000000 </v>
   </varray>
  </crystal>
  <varray name="positions" >
   <v>       0.26422003       0.42785518       0.52821594 </v>
   <v>       0.43793752       0.56561110       0.32757008 </v>
   <v>       0.45581208       0.52423376       0.38051465 </v>
   <v>       0.47372925       0.61530131       0.44986522 </v>
   <v>       0.45595175       0.65963312       0.39935201 </v>
   <v>       0.43785737       0.63472201       0.33675972 </v>
   <v>       0.52307882       0.32955005       0.67474498 </v>
   <v>       0.49710163       0.37190466       0.62618823 </v>
   <v>       0.60227374       0.41933300       0.60593616 </v>
   <v>       0.63096398       0.37761922       0.65422416 </v>
   <v>       0.73964927       0.52855915       0.53463181 </v>
   <v>       0.70082162       0.56612858       0.49044049 </v>
   <v>       0.63257913       0.55363620       0.48652424 </v>
   <v>       0.63952130       0.46927713       0.56732841 </v>
   <v>       0.70843899       0.47974495       0.57314689 </v>
   <v>       0.59134754       0.33224398       0.68903016 </v>
   <v>       0.36211554       0.48866484       0.56417415 </v>
   <v>       0.40790931       0.62211625       0.69058213 </v>
   <v>       0.47619960       0.62606623       0.67660612 </v>
   <v>       0.50295190       0.58590820       0.62668073 </v>
   <v>       0.39825425       0.53800137       0.60426081 </v>
   <v>       0.36904589       0.57756069       0.65398228 </v>
   <v>       0.37289802       0.40579857       0.48223443 </v>
   <v>       0.30486503       0.39173492       0.48443166 </v>
   <v>       0.29334713       0.47671938       0.56830116 </v>
   <v>       0.48989745       0.29510618       0.70074864 </v>
   <v>       0.61334240       0.29968355       0.72673159 </v>
   <v>       0.68424189       0.38076917       0.66478776 </v>
   <v>       0.54225374       0.36233861       0.46129841 </v>
   <v>       0.31579090       0.57306911       0.66420366 </v>
   <v>       0.44416348       0.37118871       0.61364770 </v>
   <v>       0.42392665       0.66833230       0.29622671 </v>
   <v>       0.45642762       0.71313270       0.40950260 </v>
   <v>       0.48809132       0.63358802       0.49907234 </v>
   <v>       0.56912778       0.41808713       0.41480476 </v>
   <v>       0.73767440       0.44963919       0.60776512 </v>
   <v>       0.72277620       0.60481012       0.45904817 </v>
   <v>       0.45570253       0.47012894       0.37468790 </v>
   <v>       0.40614333       0.37888556       0.44852541 </v>
   <v>       0.28443799       0.35306162       0.45202062 </v>
   <v>       0.79326502       0.53703787       0.53892527 </v>
   <v>       0.55589708       0.58769132       0.61440612 </v>
   <v>       0.42412006       0.54328620       0.27986105 </v>
   <v>       0.50894741       0.65984570       0.70400156 </v>
   <v>       0.26265982       0.50568523       0.60265428 </v>
   <v>       0.21072272       0.41813760       0.53105039 </v>
   <v>       0.60090654       0.58197914       0.45254259 </v>
   <v>       0.38544357       0.65296704       0.72941133 </v>
   <v>       0.47424490       0.54794204       0.44140236 </v>
   <v>       0.40180479       0.45306079       0.52108436 </v>
   <v>       0.53520702       0.41608490       0.59173240 </v>
   <v>       0.46544808       0.54254992       0.59041194 </v>
   <v>       0.60138410       0.50650621       0.52397638 </v>
   <v>       0.53073984       0.40562607       0.44215451 </v>
   <v>       0.50088568       0.48087016       0.51934246 </v>
  </varray>
  <varray name="selective"  type="logical" >
   <v type="logical" >  T  T  T </v>
   <v type="logical" >  T  T  T </v>
   <v type="logical" >  T  T  T </v>
   <v type="logical" >  T  T  T </v>
   <v type="logical" >  T  T  T </v>
   <v type="logical" >  T  T  T </v>
   <v type="logical" >  T  T  T </v>
   <v type="logical" >  T  T  T </v>
   <v type="logical" >  T  T  T </v>
   <v type="logical" >  T  T  T </v>
   <v type="logical" >  T  T  T </v>
   <v type="logical" >  T  T  T </v>
   <v type="logical" >  T  T  T </v>
   <v type="logical" >  T  T  T </v>
   <v type="logical" >  T  T  T </v>
   <v type="logical" >  T  T  T </v>
   <v type="logical" >  T  T  T </v>
   <v type="logical" >  T  T  T </v>
   <v type="logical" >  T  T  T </v>
   <v type="logical" >  T  T  T </v>
   <v type="logical" >  T  T  T </v>
   <v type="logical" >  T  T  T </v>
   <v type="logical" >  T  T  T </v>
   <v type="logical" >  T  T  T </v>
   <v type="logical" >  T  T  T </v>
   <v type="logical" >  T  T  T </v>
   <v type="logical" >  T  T  T </v>
   <v type="logical" >  T  T  T </v>
   <v type="logical" >  T  T  T </v>
   <v type="logical" >  T  T  T </v>
   <v type="logical" >  T  T  T </v>
   <v type="logical" >  T  T  T </v>
   <v type="logical" >  T  T  T </v>
   <v type="logical" >  T  T  T </v>
   <v type="logical" >  T  T  T </v>
   <v type="logical" >  T  T  T </v>
   <v type="logical" >  T  T  T </v>
   <v type="logical" >  T  T  T </v>
   <v type="logical" >  T  T  T </v>
   <v type="logical" >  T  T  T </v>
   <v type="logical" >  T  T  T </v>
   <v type="logical" >  T  T  T </v>
   <v type="logical" >  T  T  T </v>
   <v type="logical" >  T  T  T </v>
   <v type="logical" >  T  T  T </v>
   <v type="logical" >  T  T  T </v>
   <v type="logical" >  T  T  T </v>
   <v type="logical" >  T  T  T </v>
   <v type="logical" >  T  T  T </v>
   <v type="logical" >  T  T  T </v>
   <v type="logical" >  T  T  T </v>
   <v type="logical" >  T  T  T </v>
   <v type="logical" >  T  T  T </v>
   <v type="logical" >  T  T  T </v>
   <v type="logical" >  T  T  T </v>
  </varray>
  <nose>
   <v>      -3.00000000       0.00000000       0.00010000       0.00010000 </v>
  </nose>
 </structure>
 <calculation>
  <scstep>
   <time name="dav">   14.76   15.70</time>
   <time name="total">   22.29   23.27</time>
   <energy>
    <i name="alphaZ">     12.91687988 </i>
    <i name="ewald">  23266.04766040 </i>
    <i name="hartreedc"> -28868.35661891 </i>
    <i name="XCdc">    400.93212639 </i>
    <i name="pawpsdc">   5890.45591622 </i>
    <i name="pawaedc">  -5710.10246236 </i>
    <i name="eentropy">     -0.00000487 </i>
    <i name="bandstr">  -1675.94077247 </i>
    <i name="atom">   7593.39991119 </i>
    <i name="e_fr_energy">    909.35263548 </i>
    <i name="e_wo_entrp">    909.35264035 </i>
    <i name="e_0_energy">    909.35263791 </i>
   </energy>
  </scstep>
  <scstep>
   <time name="dav">   19.06   20.24</time>
   <time name="total">   19.07   20.26</time>
   <energy>
    <i name="e_fr_energy">    -67.43916403 </i>
    <i name="e_wo_entrp">    -67.43916403 </i>
    <i name="e_0_energy">    -67.43916403 </i>
   </energy>
  </scstep>
  <scstep>
   <time name="dav">   15.99   16.94</time>
   <time name="total">   15.99   16.95</time>
   <energy>
    <i name="e_fr_energy">   -393.34240475 </i>
    <i name="e_wo_entrp">   -393.34240475 </i>
    <i name="e_0_energy">   -393.34240475 </i>
   </energy>
  </scstep>
  <scstep>
   <time name="dav">   12.72   13.38</time>
   <time name="total">   12.73   13.39</time>
   <energy>
    <i name="e_fr_energy">   -412.31820101 </i>
    <i name="e_wo_entrp">   -412.31820101 </i>
    <i name="e_0_energy">   -412.31820101 </i>
   </energy>
  </scstep>
  <scstep>
   <time name="dav">   17.06   18.07</time>
   <time name="total">   22.32   23.35</time>
   <energy>
    <i name="e_fr_energy">   -412.58190207 </i>
    <i name="e_wo_entrp">   -412.58190207 </i>
    <i name="e_0_energy">   -412.58190207 </i>
   </energy>
  </scstep>
  <scstep>
   <time name="dav">   10.83   11.48</time>
   <time name="total">   23.55   24.24</time>
   <energy>
    <i name="e_fr_energy">   -393.29379037 </i>
    <i name="e_wo_entrp">   -393.29379037 </i>
    <i name="e_0_energy">   -393.29379037 </i>
   </energy>
  </scstep>
  <scstep>
   <time name="dav">   15.00   16.33</time>
   <time name="total">   27.63   29.02</time>
   <energy>
    <i name="e_fr_energy">   -382.90819720 </i>
    <i name="e_wo_entrp">   -382.90819720 </i>
    <i name="e_0_energy">   -382.90819720 </i>
   </energy>
  </scstep>
  <scstep>
   <time name="dav">   15.16   16.46</time>
   <time name="total">   28.06   29.42</time>
   <energy>
    <i name="e_fr_energy">   -378.83275520 </i>
    <i name="e_wo_entrp">   -378.83275520 </i>
    <i name="e_0_energy">   -378.83275520 </i>
   </energy>
  </scstep>
  <scstep>
   <time name="dav">   15.02   16.29</time>
   <time name="total">   27.75   29.09</time>
   <energy>
    <i name="e_fr_energy">   -377.67445394 </i>
    <i name="e_wo_entrp">   -377.67445394 </i>
    <i name="e_0_energy">   -377.67445394 </i>
   </energy>
  </scstep>
  <scstep>
   <time name="dav">   15.18   16.49</time>
   <time name="total">   27.86   29.22</time>
   <energy>
    <i name="e_fr_energy">   -377.64490850 </i>
    <i name="e_wo_entrp">   -377.64490850 </i>
    <i name="e_0_energy">   -377.64490850 </i>
   </energy>
  </scstep>
  <scstep>
   <time name="dav">   17.18   18.53</time>
   <time name="total">   29.61   31.30</time>
   <energy>
    <i name="e_fr_energy">   -377.50291910 </i>
    <i name="e_wo_entrp">   -377.50291910 </i>
    <i name="e_0_energy">   -377.50291910 </i>
   </energy>
  </scstep>
  <scstep>
   <time name="dav">   15.16   16.46</time>
   <time name="total">   27.92   29.28</time>
   <energy>
    <i name="e_fr_energy">   -377.43439984 </i>
    <i name="e_wo_entrp">   -377.43439984 </i>
    <i name="e_0_energy">   -377.43439984 </i>
   </energy>
  </scstep>
  <scstep>
   <time name="dav">   15.04   16.31</time>
   <time name="total">   27.90   29.22</time>
   <energy>
    <i name="e_fr_energy">   -377.41162099 </i>
    <i name="e_wo_entrp">   -377.41162099 </i>
    <i name="e_0_energy">   -377.41162099 </i>
   </energy>
  </scstep>
  <scstep>
   <time name="dav">   15.19   16.48</time>
   <time name="total">   27.99   29.30</time>
   <energy>
    <i name="e_fr_energy">   -377.40399194 </i>
    <i name="e_wo_entrp">   -377.40399194 </i>
    <i name="e_0_energy">   -377.40399194 </i>
   </energy>
  </scstep>
  <scstep>
   <time name="dav">   15.06   16.32</time>
   <time name="total">   27.95   29.23</time>
   <energy>
    <i name="e_fr_energy">   -377.40735615 </i>
    <i name="e_wo_entrp">   -377.40735615 </i>
    <i name="e_0_energy">   -377.40735615 </i>
   </energy>
  </scstep>
  <scstep>
   <time name="dav">   15.02   16.32</time>
   <time name="total">   27.98   29.33</time>
   <energy>
    <i name="e_fr_energy">   -377.41715739 </i>
    <i name="e_wo_entrp">   -377.41715739 </i>
    <i name="e_0_energy">   -377.41715739 </i>
   </energy>
  </scstep>
  <scstep>
   <time name="dav">   15.04   16.31</time>
   <time name="total">   27.74   29.04</time>
   <energy>
    <i name="e_fr_energy">   -377.42361694 </i>
    <i name="e_wo_entrp">   -377.42361694 </i>
    <i name="e_0_energy">   -377.42361694 </i>
   </energy>
  </scstep>
  <scstep>
   <time name="dav">   15.04   16.32</time>
   <time name="total">   28.04   29.35</time>
   <energy>
    <i name="e_fr_energy">   -377.42945177 </i>
    <i name="e_wo_entrp">   -377.42945177 </i>
    <i name="e_0_energy">   -377.42945177 </i>
   </energy>
  </scstep>
  <scstep>
   <time name="dav">   15.05   16.33</time>
   <time name="total">   27.81   29.11</time>
   <energy>
    <i name="e_fr_energy">   -377.43170885 </i>
    <i name="e_wo_entrp">   -377.43170885 </i>
    <i name="e_0_energy">   -377.43170885 </i>
   </energy>
  </scstep>
  <scstep>
   <time name="dav">   15.03   16.32</time>
   <time name="total">   27.89   29.33</time>
   <energy>
    <i name="e_fr_energy">   -377.43356019 </i>
    <i name="e_wo_entrp">   -377.43356019 </i>
    <i name="e_0_energy">   -377.43356019 </i>
   </energy>
  </scstep>
  <scstep>
   <time name="dav">   15.15   16.43</time>
   <time name="total">   27.89   29.22</time>
   <energy>
    <i name="e_fr_energy">   -377.43544272 </i>
    <i name="e_wo_entrp">   -377.43544272 </i>
    <i name="e_0_energy">   -377.43544272 </i>
   </energy>
  </scstep>
  <scstep>
   <time name="dav">   15.03   16.34</time>
   <time name="total">   27.71   29.25</time>
   <energy>
    <i name="e_fr_energy">   -377.43608022 </i>
    <i name="e_wo_entrp">   -377.43608022 </i>
    <i name="e_0_energy">   -377.43608022 </i>
   </energy>
  </scstep>
  <scstep>
   <time name="dav">   13.09   14.27</time>
   <time name="total">   25.98   27.22</time>
   <energy>
    <i name="e_fr_energy">   -377.43660623 </i>
    <i name="e_wo_entrp">   -377.43660623 </i>
    <i name="e_0_energy">   -377.43660623 </i>
   </energy>
  </scstep>
  <scstep>
   <time name="dav">   13.25   14.45</time>
   <time name="total">   26.20   27.42</time>
   <energy>
    <i name="e_fr_energy">   -377.43693987 </i>
    <i name="e_wo_entrp">   -377.43693987 </i>
    <i name="e_0_energy">   -377.43693987 </i>
   </energy>
  </scstep>
  <scstep>
   <time name="dav">   13.72   15.06</time>
   <time name="total">   26.63   28.07</time>
   <energy>
    <i name="e_fr_energy">   -377.43706881 </i>
    <i name="e_wo_entrp">   -377.43706881 </i>
    <i name="e_0_energy">   -377.43706881 </i>
   </energy>
  </scstep>
  <scstep>
   <time name="dav">   13.25   14.44</time>
   <time name="total">   26.09   27.34</time>
   <energy>
    <i name="e_fr_energy">   -377.43720609 </i>
    <i name="e_wo_entrp">   -377.43720609 </i>
    <i name="e_0_energy">   -377.43720609 </i>
   </energy>
  </scstep>
  <scstep>
   <time name="dav">   13.22   14.41</time>
   <time name="total">   26.04   27.29</time>
   <energy>
    <i name="e_fr_energy">   -377.43725021 </i>
    <i name="e_wo_entrp">   -377.43725021 </i>
    <i name="e_0_energy">   -377.43725021 </i>
   </energy>
  </scstep>
  <scstep>
   <time name="dav">   13.25   14.45</time>
   <time name="total">   26.23   27.46</time>
   <energy>
    <i name="e_fr_energy">   -377.43728216 </i>
    <i name="e_wo_entrp">   -377.43728216 </i>
    <i name="e_0_energy">   -377.43728216 </i>
   </energy>
  </scstep>
  <scstep>
   <time name="dav">   13.09   14.41</time>
   <time name="total">   25.95   27.31</time>
   <energy>
    <i name="e_fr_energy">   -377.43729424 </i>
    <i name="e_wo_entrp">   -377.43729424 </i>
    <i name="e_0_energy">   -377.43729424 </i>
   </energy>
  </scstep>
  <scstep>
   <time name="dav">   13.09   14.28</time>
   <time name="total">   20.59   21.84</time>
   <energy>
    <i name="alphaZ">     12.91687988 </i>
    <i name="ewald">  23266.04766040 </i>
    <i name="hartreedc"> -29108.65875894 </i>
    <i name="XCdc">    424.24631829 </i>
    <i name="pawpsdc">  81170.61287821 </i>
    <i name="pawaedc"> -80997.47993965 </i>
    <i name="eentropy">     -0.00000000 </i>
    <i name="bandstr">  -2738.52225215 </i>
    <i name="atom">   7593.39991119 </i>
    <i name="e_fr_energy">   -377.43730277 </i>
    <i name="e_wo_entrp">   -377.43730277 </i>
    <i name="e_0_energy">   -377.43730277 </i>
   </energy>
  </scstep>
  <structure>
   <crystal>
    <varray name="basis" >
     <v>      20.00000000       0.00000000       0.00000000 </v>
     <v>       0.00000000      20.00000000       0.00000000 </v>
     <v>       0.00000000       0.00000000      20.00000000 </v>
    </varray>
    <i name="volume">   8000.00000000 </i>
    <varray name="rec_basis" >
     <v>       0.05000000       0.00000000       0.00000000 </v>
     <v>       0.00000000       0.05000000       0.00000000 </v>
     <v>       0.00000000       0.00000000       0.05000000 </v>
    </varray>
   </crystal>
   <varray name="positions" >
    <v>       0.26422003       0.42785518       0.52821594 </v>
    <v>       0.43793752       0.56561110       0.32757008 </v>
    <v>       0.45581208       0.52423376       0.38051465 </v>
    <v>       0.47372925       0.61530131       0.44986522 </v>
    <v>       0.45595175       0.65963312       0.39935201 </v>
    <v>       0.43785737       0.63472201       0.33675972 </v>
    <v>       0.52307882       0.32955005       0.67474498 </v>
    <v>       0.49710163       0.37190466       0.62618823 </v>
    <v>       0.60227374       0.41933300       0.60593616 </v>
    <v>       0.63096398       0.37761922       0.65422416 </v>
    <v>       0.73964927       0.52855915       0.53463181 </v>
    <v>       0.70082162       0.56612858       0.49044049 </v>
    <v>       0.63257913       0.55363620       0.48652424 </v>
    <v>       0.63952130       0.46927713       0.56732841 </v>
    <v>       0.70843899       0.47974495       0.57314689 </v>
    <v>       0.59134754       0.33224398       0.68903016 </v>
    <v>       0.36211554       0.48866484       0.56417415 </v>
    <v>       0.40790931       0.62211625       0.69058213 </v>
    <v>       0.47619960       0.62606623       0.67660612 </v>
    <v>       0.50295190       0.58590820       0.62668073 </v>
    <v>       0.39825425       0.53800137       0.60426081 </v>
    <v>       0.36904589       0.57756069       0.65398228 </v>
    <v>       0.37289802       0.40579857       0.48223443 </v>
    <v>       0.30486503       0.39173492       0.48443166 </v>
    <v>       0.29334713       0.47671938       0.56830116 </v>
    <v>       0.48989745       0.29510618       0.70074864 </v>
    <v>       0.61334240       0.29968355       0.72673159 </v>
    <v>       0.68424189       0.38076917       0.66478776 </v>
    <v>       0.54225374       0.36233861       0.46129841 </v>
    <v>       0.31579090       0.57306911       0.66420366 </v>
    <v>       0.44416348       0.37118871       0.61364770 </v>
    <v>       0.42392665       0.66833230       0.29622671 </v>
    <v>       0.45642762       0.71313270       0.40950260 </v>
    <v>       0.48809132       0.63358802       0.49907234 </v>
    <v>       0.56912778       0.41808713       0.41480476 </v>
    <v>       0.73767440       0.44963919       0.60776512 </v>
    <v>       0.72277620       0.60481012       0.45904817 </v>
    <v>       0.45570253       0.47012894       0.37468790 </v>
    <v>       0.40614333       0.37888556       0.44852541 </v>
    <v>       0.28443799       0.35306162       0.45202062 </v>
    <v>       0.79326502       0.53703787       0.53892527 </v>
    <v>       0.55589708       0.58769132       0.61440612 </v>
    <v>       0.42412006       0.54328620       0.27986105 </v>
    <v>       0.50894741       0.65984570       0.70400156 </v>
    <v>       0.26265982       0.50568523       0.60265428 </v>
    <v>       0.21072272       0.41813760       0.53105039 </v>
    <v>       0.60090654       0.58197914       0.45254259 </v>
    <v>       0.38544357       0.65296704       0.72941133 </v>
    <v>       0.47424490       0.54794204       0.44140236 </v>
    <v>       0.40180479       0.45306079       0.52108436 </v>
    <v>       0.53520702       0.41608490       0.59173240 </v>
    <v>       0.46544808       0.54254992       0.59041194 </v>
    <v>       0.60138410       0.50650621       0.52397638 </v>
    <v>       0.53073984       0.40562607       0.44215451 </v>
    <v>       0.50088568       0.48087016       0.51934246 </v>
   </varray>
  </structure>
  <varray name="forces" >
   <v>       0.19208087       0.09600631       0.05343197 </v>
   <v>      -0.01647451      -0.02493271      -0.00327113 </v>
   <v>       0.00092254      -0.01473117      -0.00171022 </v>
   <v>       0.01320172       0.00488353       0.02425407 </v>
   <v>      -0.00057080       0.01318576       0.00919494 </v>
   <v>       0.00654416       0.00177643       0.01119721 </v>
   <v>      -0.00813894      -0.00574610       0.00530291 </v>
   <v>       0.02083277       0.02112275      -0.02838014 </v>
   <v>      -0.01589546      -0.00076456       0.00352735 </v>
   <v>      -0.00212850       0.01247759      -0.00946962 </v>
   <v>      -0.02378940       0.01447073      -0.02134929 </v>
   <v>       0.02650879      -0.00925622       0.01595183 </v>
   <v>      -0.07218531       0.00152662      -0.01993444 </v>
   <v>      -0.02918782      -0.00290161      -0.00280933 </v>
   <v>      -0.01451312      -0.00298838       0.00171283 </v>
   <v>      -0.01855015       0.00067527      -0.00647335 </v>
   <v>      -0.02947120       0.09113022       0.10205907 </v>
   <v>      -0.00151085       0.02142516       0.02216057 </v>
   <v>      -0.05096330       0.00431068       0.01675851 </v>
   <v>      -0.00457643      -0.05620621      -0.05568002 </v>
   <v>      -0.04720291       0.06207032       0.06755841 </v>
   <v>      -0.03541932      -0.03284442      -0.02613355 </v>
   <v>      -0.16943950      -0.03946605      -0.00297942 </v>
   <v>      -0.41072310       0.47459392       0.54363404 </v>
   <v>      -0.37425481      -0.70542717      -0.59563197 </v>
   <v>       0.00029723      -0.00480685       0.00414087 </v>
   <v>      -0.00055844      -0.00457644       0.00448454 </v>
   <v>      -0.00310140      -0.00009710       0.00207533 </v>
   <v>       0.03671961      -0.02355624      -0.00699089 </v>
   <v>      -0.01180247       0.03443670       0.03414313 </v>
   <v>       0.00411290      -0.02329909       0.01940909 </v>
   <v>       0.00044330       0.00600435      -0.00361165 </v>
   <v>       0.00599823       0.00141263      -0.00000636 </v>
   <v>       0.00797906       0.01473090      -0.00851517 </v>
   <v>       0.01244688      -0.00780894      -0.03187527 </v>
   <v>       0.00045812       0.00093170       0.00119425 </v>
   <v>      -0.00224727       0.00243722      -0.00488656 </v>
   <v>       0.01390953      -0.00633306      -0.02134528 </v>
   <v>      -0.08494485      -0.02841581      -0.00920764 </v>
   <v>      -0.15644506       0.04861805       0.08370875 </v>
   <v>       0.00024335       0.00340514       0.00118128 </v>
   <v>       0.00036979      -0.00194596       0.00013701 </v>
   <v>      -0.00176360       0.00019440       0.00036179 </v>
   <v>      -0.00005089       0.00609007       0.00406182 </v>
   <v>      -0.11708269      -0.10577520      -0.07871120 </v>
   <v>       1.15857771       0.20718986      -0.06582618 </v>
   <v>       0.01229822       0.00347760      -0.00528490 </v>
   <v>      -0.00476123       0.00347395       0.00436549 </v>
   <v>       0.02156009       0.09170609      -0.09391389 </v>
   <v>       0.44935074       0.07125579      -0.07006004 </v>
   <v>       0.11430366      -0.07086953       0.08741665 </v>
   <v>       0.02300549      -0.04356373      -0.02769147 </v>
   <v>       0.12448286       0.02873065       0.01174741 </v>
   <v>      -0.03428068       0.03844669       0.06417331 </v>
   <v>      -0.50461362      -0.16588453       0.00240454 </v>
  </varray>
  <varray name="stress" >
   <v>      -3.23663696      -0.13701034      -0.00363627 </v>
   <v>      -0.13701032      -2.83516229      -0.24803681 </v>
   <v>      -0.00363625      -0.24803677      -2.82083541 </v>
  </varray>
  <energy>
   <i name="e_fr_energy">   -377.43730277 </i>
   <i name="e_wo_entrp">   -377.43730277 </i>
   <i name="e_0_energy">     -0.00000000 </i>
  </energy>
  <time name="totalsc"> 1009.98 1049.88</time>
  <eigenvalues>
   <array>
    <dimension dim="1">band</dimension>
    <dimension dim="2">kpoint</dimension>
    <dimension dim="3">spin</dimension>
    <field>eigene</field>
    <field>occ</field>
    <set>
     <set comment="spin 1">
      <set comment="kpoint 1">
       <r>  -49.1436    1.0000 </r>
       <r>  -49.0026    1.0000 </r>
       <r>  -48.7887    1.0000 </r>
       <r>  -29.1434    1.0000 </r>
       <r>  -27.4016    1.0000 </r>
       <r>  -26.8237    1.0000 </r>
       <r>  -26.5464    1.0000 </r>
       <r>  -26.1905    1.0000 </r>
       <r>  -26.1293    1.0000 </r>
       <r>  -24.1595    1.0000 </r>
       <r>  -22.8798    1.0000 </r>
       <r>  -22.5037    1.0000 </r>
       <r>  -22.4213    1.0000 </r>
       <r>  -22.2992    1.0000 </r>
       <r>  -22.1977    1.0000 </r>
       <r>  -22.0617    1.0000 </r>
       <r>  -21.3576    1.0000 </r>
       <r>  -21.1339    1.0000 </r>
       <r>  -20.7841    1.0000 </r>
       <r>  -19.4578    1.0000 </r>
       <r>  -19.3993    1.0000 </r>
       <r>  -18.7072    1.0000 </r>
       <r>  -18.4423    1.0000 </r>
       <r>  -18.1270    1.0000 </r>
       <r>  -17.9752    1.0000 </r>
       <r>  -17.8447    1.0000 </r>
       <r>  -17.6531    1.0000 </r>
       <r>  -17.5923    1.0000 </r>
       <r>  -17.2935    1.0000 </r>
       <r>  -16.8208    1.0000 </r>
       <r>  -16.5647    1.0000 </r>
       <r>  -15.8496    1.0000 </r>
       <r>  -15.7109    1.0000 </r>
       <r>  -15.3698    1.0000 </r>
       <r>  -15.2574    1.0000 </r>
       <r>  -14.7530    1.0000 </r>
       <r>  -14.7127    1.0000 </r>
       <r>  -14.6670    1.0000 </r>
       <r>  -14.2839    1.0000 </r>
       <r>  -14.1018    1.0000 </r>
       <r>  -14.0452    1.0000 </r>
       <r>  -14.0216    1.0000 </r>
       <r>  -13.9668    1.0000 </r>
       <r>  -13.8229    1.0000 </r>
       <r>  -13.7659    1.0000 </r>
       <r>  -13.5922    1.0000 </r>
       <r>  -13.4611    1.0000 </r>
       <r>  -13.3651    1.0000 </r>
       <r>  -13.2227    1.0000 </r>
       <r>  -13.1656    1.0000 </r>
       <r>  -12.8869    1.0000 </r>
       <r>  -12.8242    1.0000 </r>
       <r>  -12.7599    1.0000 </r>
       <r>  -12.6951    1.0000 </r>
       <r>  -12.5660    1.0000 </r>
       <r>  -12.4489    1.0000 </r>
       <r>  -12.3183    1.0000 </r>
       <r>  -12.3066    1.0000 </r>
       <r>  -12.2203    1.0000 </r>
       <r>  -12.0528    1.0000 </r>
       <r>  -11.4595    1.0000 </r>
       <r>  -11.4057    1.0000 </r>
       <r>  -11.3053    1.0000 </r>
       <r>  -11.2066    1.0000 </r>
       <r>  -11.1043    1.0000 </r>
       <r>  -11.0838    1.0000 </r>
       <r>  -10.7663    1.0000 </r>
       <r>  -10.6641    1.0000 </r>
       <r>  -10.5254    1.0000 </r>
       <r>  -10.2768    1.0000 </r>
       <r>  -10.0917    1.0000 </r>
       <r>  -10.0472    1.0000 </r>
       <r>   -9.8084    1.0000 </r>
       <r>   -9.7469    1.0000 </r>
       <r>   -9.7102    1.0000 </r>
       <r>   -9.5718    1.0000 </r>
       <r>   -9.4841    1.0000 </r>
       <r>   -8.8485    1.0000 </r>
       <r>   -8.7587    1.0000 </r>
       <r>   -8.3776    1.0000 </r>
       <r>   -7.4879    1.0000 </r>
       <r>   -7.3081    1.0000 </r>
       <r>   -7.1623    1.0000 </r>
       <r>   -5.6552    0.0000 </r>
       <r>   -5.0719    0.0000 </r>
       <r>   -5.0006    0.0000 </r>
       <r>   -4.3515    0.0000 </r>
       <r>   -4.1434    0.0000 </r>
       <r>   -4.0977    0.0000 </r>
       <r>   -3.9690    0.0000 </r>
       <r>   -3.8433    0.0000 </r>
       <r>   -3.5074    0.0000 </r>
       <r>   -3.2828    0.0000 </r>
       <r>   -3.1923    0.0000 </r>
       <r>   -2.8325    0.0000 </r>
       <r>   -2.7252    0.0000 </r>
       <r>   -1.9967    0.0000 </r>
       <r>   -1.6476    0.0000 </r>
       <r>   -1.5410    0.0000 </r>
       <r>   -1.4019    0.0000 </r>
       <r>   -1.2801    0.0000 </r>
       <r>   -1.2236    0.0000 </r>
       <r>   -1.1843    0.0000 </r>
       <r>   -0.9782    0.0000 </r>
       <r>   -0.8948    0.0000 </r>
       <r>   -0.7974    0.0000 </r>
       <r>   -0.6793    0.0000 </r>
       <r>   -0.5842    0.0000 </r>
       <r>   -0.5099    0.0000 </r>
       <r>   -0.4927    0.0000 </r>
       <r>   -0.3873    0.0000 </r>
       <r>   -0.3459    0.0000 </r>
       <r>   -0.2562    0.0000 </r>
       <r>   -0.1759    0.0000 </r>
       <r>   -0.0536    0.0000 </r>
       <r>    0.0608    0.0000 </r>
       <r>    0.1232    0.0000 </r>
       <r>    0.1935    0.0000 </r>
       <r>    0.2445    0.0000 </r>
       <r>    0.2905    0.0000 </r>
       <r>    0.3343    0.0000 </r>
       <r>    0.3667    0.0000 </r>
       <r>    0.4056    0.0000 </r>
       <r>    0.4453    0.0000 </r>
       <r>    0.5510    0.0000 </r>
       <r>    0.6147    0.0000 </r>
       <r>    0.6540    0.0000 </r>
       <r>    0.6911    0.0000 </r>
      </set>
     </set>
     <set comment="spin 2">
      <set comment="kpoint 1">
       <r>  -49.1436    1.0000 </r>
       <r>  -49.0026    1.0000 </r>
       <r>  -48.7887    1.0000 </r>
       <r>  -29.1434    1.0000 </r>
       <r>  -27.4016    1.0000 </r>
       <r>  -26.8237    1.0000 </r>
       <r>  -26.5464    1.0000 </r>
       <r>  -26.1905    1.0000 </r>
       <r>  -26.1293    1.0000 </r>
       <r>  -24.1595    1.0000 </r>
       <r>  -22.8798    1.0000 </r>
       <r>  -22.5037    1.0000 </r>
       <r>  -22.4213    1.0000 </r>
       <r>  -22.2992    1.0000 </r>
       <r>  -22.1977    1.0000 </r>
       <r>  -22.0617    1.0000 </r>
       <r>  -21.3576    1.0000 </r>
       <r>  -21.1339    1.0000 </r>
       <r>  -20.7841    1.0000 </r>
       <r>  -19.4578    1.0000 </r>
       <r>  -19.3993    1.0000 </r>
       <r>  -18.7072    1.0000 </r>
       <r>  -18.4423    1.0000 </r>
       <r>  -18.1270    1.0000 </r>
       <r>  -17.9752    1.0000 </r>
       <r>  -17.8447    1.0000 </r>
       <r>  -17.6531    1.0000 </r>
       <r>  -17.5923    1.0000 </r>
       <r>  -17.2935    1.0000 </r>
       <r>  -16.8208    1.0000 </r>
       <r>  -16.5647    1.0000 </r>
       <r>  -15.8496    1.0000 </r>
       <r>  -15.7109    1.0000 </r>
       <r>  -15.3698    1.0000 </r>
       <r>  -15.2574    1.0000 </r>
       <r>  -14.7530    1.0000 </r>
       <r>  -14.7127    1.0000 </r>
       <r>  -14.6670    1.0000 </r>
       <r>  -14.2839    1.0000 </r>
       <r>  -14.1018    1.0000 </r>
       <r>  -14.0452    1.0000 </r>
       <r>  -14.0216    1.0000 </r>
       <r>  -13.9668    1.0000 </r>
       <r>  -13.8229    1.0000 </r>
       <r>  -13.7659    1.0000 </r>
       <r>  -13.5922    1.0000 </r>
       <r>  -13.4611    1.0000 </r>
       <r>  -13.3651    1.0000 </r>
       <r>  -13.2227    1.0000 </r>
       <r>  -13.1656    1.0000 </r>
       <r>  -12.8869    1.0000 </r>
       <r>  -12.8242    1.0000 </r>
       <r>  -12.7599    1.0000 </r>
       <r>  -12.6951    1.0000 </r>
       <r>  -12.5660    1.0000 </r>
       <r>  -12.4489    1.0000 </r>
       <r>  -12.3183    1.0000 </r>
       <r>  -12.3066    1.0000 </r>
       <r>  -12.2203    1.0000 </r>
       <r>  -12.0528    1.0000 </r>
       <r>  -11.4595    1.0000 </r>
       <r>  -11.4057    1.0000 </r>
       <r>  -11.3053    1.0000 </r>
       <r>  -11.2066    1.0000 </r>
       <r>  -11.1043    1.0000 </r>
       <r>  -11.0838    1.0000 </r>
       <r>  -10.7663    1.0000 </r>
       <r>  -10.6641    1.0000 </r>
       <r>  -10.5254    1.0000 </r>
       <r>  -10.2768    1.0000 </r>
       <r>  -10.0917    1.0000 </r>
       <r>  -10.0472    1.0000 </r>
       <r>   -9.8084    1.0000 </r>
       <r>   -9.7469    1.0000 </r>
       <r>   -9.7102    1.0000 </r>
       <r>   -9.5718    1.0000 </r>
       <r>   -9.4841    1.0000 </r>
       <r>   -8.8485    1.0000 </r>
       <r>   -8.7587    1.0000 </r>
       <r>   -8.3776    1.0000 </r>
       <r>   -7.4879    1.0000 </r>
       <r>   -7.3081    1.0000 </r>
       <r>   -7.1623    1.0000 </r>
       <r>   -5.6552    0.0000 </r>
       <r>   -5.0719    0.0000 </r>
       <r>   -5.0006    0.0000 </r>
       <r>   -4.3515    0.0000 </r>
       <r>   -4.1434    0.0000 </r>
       <r>   -4.0977    0.0000 </r>
       <r>   -3.9690    0.0000 </r>
       <r>   -3.8433    0.0000 </r>
       <r>   -3.5074    0.0000 </r>
       <r>   -3.2828    0.0000 </r>
       <r>   -3.1923    0.0000 </r>
       <r>   -2.8325    0.0000 </r>
       <r>   -2.7252    0.0000 </r>
       <r>   -1.9967    0.0000 </r>
       <r>   -1.6476    0.0000 </r>
       <r>   -1.5410    0.0000 </r>
       <r>   -1.4019    0.0000 </r>
       <r>   -1.2801    0.0000 </r>
       <r>   -1.2236    0.0000 </r>
       <r>   -1.1843    0.0000 </r>
       <r>   -0.9782    0.0000 </r>
       <r>   -0.8948    0.0000 </r>
       <r>   -0.7974    0.0000 </r>
       <r>   -0.6793    0.0000 </r>
       <r>   -0.5842    0.0000 </r>
       <r>   -0.5099    0.0000 </r>
       <r>   -0.4927    0.0000 </r>
       <r>   -0.3873    0.0000 </r>
       <r>   -0.3459    0.0000 </r>
       <r>   -0.2562    0.0000 </r>
       <r>   -0.1759    0.0000 </r>
       <r>   -0.0536    0.0000 </r>
       <r>    0.0608    0.0000 </r>
       <r>    0.1232    0.0000 </r>
       <r>    0.1935    0.0000 </r>
       <r>    0.2445    0.0000 </r>
       <r>    0.2905    0.0000 </r>
       <r>    0.3343    0.0000 </r>
       <r>    0.3667    0.0000 </r>
       <r>    0.4056    0.0000 </r>
       <r>    0.4453    0.0000 </r>
       <r>    0.5510    0.0000 </r>
       <r>    0.6147    0.0000 </r>
       <r>    0.6540    0.0000 </r>
       <r>    0.6910    0.0000 </r>
      </set>
     </set>
    </set>
   </array>
  </eigenvalues>
  <separator name="orbital magnetization" >
   <v name="MAGDIPOLOUT">      0.00000000      0.00000000      0.00000000</v>
  </separator>
  <dos>
   <i name="efermi">     -7.00418455 </i>
   <total>
    <array>
     <dimension dim="1">gridpoints</dimension>
     <dimension dim="2">spin</dimension>
     <field>energy</field>
     <field>total</field>
     <field>integrated</field>
     <set>
      <set comment="spin 1">
       <r>   -51.6354     0.0000     0.0000 </r>
       <r>   -51.4526     0.0000     0.0000 </r>
       <r>   -51.2699     0.0000     0.0000 </r>
       <r>   -51.0872     0.0000     0.0000 </r>
       <r>   -50.9045     0.0000     0.0000 </r>
       <r>   -50.7217     0.0000     0.0000 </r>
       <r>   -50.5390     0.0000     0.0000 </r>
       <r>   -50.3563     0.0000     0.0000 </r>
       <r>   -50.1736     0.0000     0.0000 </r>
       <r>   -49.9908     0.0000     0.0000 </r>
       <r>   -49.8081     0.0000     0.0000 </r>
       <r>   -49.6254     0.0000     0.0000 </r>
       <r>   -49.4426     0.0000     0.0000 </r>
       <r>   -49.2599     0.0000     0.0000 </r>
       <r>   -49.0772    10.9453     2.0000 </r>
       <r>   -48.8945     0.0000     4.0000 </r>
       <r>   -48.7117    10.9453     6.0000 </r>
       <r>   -48.5290     0.0000     6.0000 </r>
       <r>   -48.3463     0.0000     6.0000 </r>
       <r>   -48.1636     0.0000     6.0000 </r>
       <r>   -47.9808     0.0000     6.0000 </r>
       <r>   -47.7981     0.0000     6.0000 </r>
       <r>   -47.6154     0.0000     6.0000 </r>
       <r>   -47.4326     0.0000     6.0000 </r>
       <r>   -47.2499     0.0000     6.0000 </r>
       <r>   -47.0672     0.0000     6.0000 </r>
       <r>   -46.8845     0.0000     6.0000 </r>
       <r>   -46.7017     0.0000     6.0000 </r>
       <r>   -46.5190     0.0000     6.0000 </r>
       <r>   -46.3363     0.0000     6.0000 </r>
       <r>   -46.1536     0.0000     6.0000 </r>
       <r>   -45.9708     0.0000     6.0000 </r>
       <r>   -45.7881     0.0000     6.0000 </r>
       <r>   -45.6054     0.0000     6.0000 </r>
       <r>   -45.4226     0.0000     6.0000 </r>
       <r>   -45.2399     0.0000     6.0000 </r>
       <r>   -45.0572     0.0000     6.0000 </r>
       <r>   -44.8745     0.0000     6.0000 </r>
       <r>   -44.6917     0.0000     6.0000 </r>
       <r>   -44.5090     0.0000     6.0000 </r>
       <r>   -44.3263     0.0000     6.0000 </r>
       <r>   -44.1435     0.0000     6.0000 </r>
       <r>   -43.9608     0.0000     6.0000 </r>
       <r>   -43.7781     0.0000     6.0000 </r>
       <r>   -43.5954     0.0000     6.0000 </r>
       <r>   -43.4126     0.0000     6.0000 </r>
       <r>   -43.2299     0.0000     6.0000 </r>
       <r>   -43.0472     0.0000     6.0000 </r>
       <r>   -42.8645     0.0000     6.0000 </r>
       <r>   -42.6817     0.0000     6.0000 </r>
       <r>   -42.4990     0.0000     6.0000 </r>
       <r>   -42.3163     0.0000     6.0000 </r>
       <r>   -42.1335     0.0000     6.0000 </r>
       <r>   -41.9508     0.0000     6.0000 </r>
       <r>   -41.7681     0.0000     6.0000 </r>
       <r>   -41.5854     0.0000     6.0000 </r>
       <r>   -41.4026     0.0000     6.0000 </r>
       <r>   -41.2199     0.0000     6.0000 </r>
       <r>   -41.0372     0.0000     6.0000 </r>
       <r>   -40.8545     0.0000     6.0000 </r>
       <r>   -40.6717     0.0000     6.0000 </r>
       <r>   -40.4890     0.0000     6.0000 </r>
       <r>   -40.3063     0.0000     6.0000 </r>
       <r>   -40.1235     0.0000     6.0000 </r>
       <r>   -39.9408     0.0000     6.0000 </r>
       <r>   -39.7581     0.0000     6.0000 </r>
       <r>   -39.5754     0.0000     6.0000 </r>
       <r>   -39.3926     0.0000     6.0000 </r>
       <r>   -39.2099     0.0000     6.0000 </r>
       <r>   -39.0272     0.0000     6.0000 </r>
       <r>   -38.8445     0.0000     6.0000 </r>
       <r>   -38.6617     0.0000     6.0000 </r>
       <r>   -38.4790     0.0000     6.0000 </r>
       <r>   -38.2963     0.0000     6.0000 </r>
       <r>   -38.1135     0.0000     6.0000 </r>
       <r>   -37.9308     0.0000     6.0000 </r>
       <r>   -37.7481     0.0000     6.0000 </r>
       <r>   -37.5654     0.0000     6.0000 </r>
       <r>   -37.3826     0.0000     6.0000 </r>
       <r>   -37.1999     0.0000     6.0000 </r>
       <r>   -37.0172     0.0000     6.0000 </r>
       <r>   -36.8344     0.0000     6.0000 </r>
       <r>   -36.6517     0.0000     6.0000 </r>
       <r>   -36.4690     0.0000     6.0000 </r>
       <r>   -36.2863     0.0000     6.0000 </r>
       <r>   -36.1035     0.0000     6.0000 </r>
       <r>   -35.9208     0.0000     6.0000 </r>
       <r>   -35.7381     0.0000     6.0000 </r>
       <r>   -35.5554     0.0000     6.0000 </r>
       <r>   -35.3726     0.0000     6.0000 </r>
       <r>   -35.1899     0.0000     6.0000 </r>
       <r>   -35.0072     0.0000     6.0000 </r>
       <r>   -34.8244     0.0000     6.0000 </r>
       <r>   -34.6417     0.0000     6.0000 </r>
       <r>   -34.4590     0.0000     6.0000 </r>
       <r>   -34.2763     0.0000     6.0000 </r>
       <r>   -34.0935     0.0000     6.0000 </r>
       <r>   -33.9108     0.0000     6.0000 </r>
       <r>   -33.7281     0.0000     6.0000 </r>
       <r>   -33.5454     0.0000     6.0000 </r>
       <r>   -33.3626     0.0000     6.0000 </r>
       <r>   -33.1799     0.0000     6.0000 </r>
       <r>   -32.9972     0.0000     6.0000 </r>
       <r>   -32.8144     0.0000     6.0000 </r>
       <r>   -32.6317     0.0000     6.0000 </r>
       <r>   -32.4490     0.0000     6.0000 </r>
       <r>   -32.2663     0.0000     6.0000 </r>
       <r>   -32.0835     0.0000     6.0000 </r>
       <r>   -31.9008     0.0000     6.0000 </r>
       <r>   -31.7181     0.0000     6.0000 </r>
       <r>   -31.5354     0.0000     6.0000 </r>
       <r>   -31.3526     0.0000     6.0000 </r>
       <r>   -31.1699     0.0000     6.0000 </r>
       <r>   -30.9872     0.0000     6.0000 </r>
       <r>   -30.8044     0.0000     6.0000 </r>
       <r>   -30.6217     0.0000     6.0000 </r>
       <r>   -30.4390     0.0000     6.0000 </r>
       <r>   -30.2563     0.0000     6.0000 </r>
       <r>   -30.0735     0.0000     6.0000 </r>
       <r>   -29.8908     0.0000     6.0000 </r>
       <r>   -29.7081     0.0000     6.0000 </r>
       <r>   -29.5253     0.0000     6.0000 </r>
       <r>   -29.3426     0.0000     6.0000 </r>
       <r>   -29.1599     0.1060     6.0194 </r>
       <r>   -28.9772     0.0000     8.0000 </r>
       <r>   -28.7944     0.0000     8.0000 </r>
       <r>   -28.6117     0.0000     8.0000 </r>
       <r>   -28.4290     0.0000     8.0000 </r>
       <r>   -28.2463     0.0000     8.0000 </r>
       <r>   -28.0635     0.0000     8.0000 </r>
       <r>   -27.8808     0.0000     8.0000 </r>
       <r>   -27.6981     0.0000     8.0000 </r>
       <r>   -27.5153     0.0000     8.0000 </r>
       <r>   -27.3326    10.9453    10.0000 </r>
       <r>   -27.1499     0.0000    10.0000 </r>
       <r>   -26.9672     0.0000    10.0000 </r>
       <r>   -26.7844    10.9453    12.0000 </r>
       <r>   -26.6017     0.0000    12.0000 </r>
       <r>   -26.4190     0.0000    14.0000 </r>
       <r>   -26.2363     0.0000    14.0000 </r>
       <r>   -26.0535    10.9453    18.0000 </r>
       <r>   -25.8708     0.0000    18.0000 </r>
       <r>   -25.6881     0.0000    18.0000 </r>
       <r>   -25.5053     0.0000    18.0000 </r>
       <r>   -25.3226     0.0000    18.0000 </r>
       <r>   -25.1399     0.0000    18.0000 </r>
       <r>   -24.9572     0.0000    18.0000 </r>
       <r>   -24.7744     0.0000    18.0000 </r>
       <r>   -24.5917     0.0000    18.0000 </r>
       <r>   -24.4090     0.0000    18.0000 </r>
       <r>   -24.2263     0.0000    18.0000 </r>
       <r>   -24.0435     0.0000    20.0000 </r>
       <r>   -23.8608     0.0000    20.0000 </r>
       <r>   -23.6781     0.0000    20.0000 </r>
       <r>   -23.4953     0.0000    20.0000 </r>
       <r>   -23.3126     0.0000    20.0000 </r>
       <r>   -23.1299     0.0000    20.0000 </r>
       <r>   -22.9472     0.0000    20.0000 </r>
       <r>   -22.7644     0.0000    22.0000 </r>
       <r>   -22.5817     0.0000    22.0000 </r>
       <r>   -22.3990    10.9364    25.9984 </r>
       <r>   -22.2162     0.0473    28.0086 </r>
       <r>   -22.0335    10.9449    31.9999 </r>
       <r>   -21.8508     0.0000    32.0000 </r>
       <r>   -21.6681     0.0000    32.0000 </r>
       <r>   -21.4853     0.0000    32.0000 </r>
       <r>   -21.3026    10.9453    34.0000 </r>
       <r>   -21.1199    10.6836    35.9522 </r>
       <r>   -20.9372     0.0000    36.0000 </r>
       <r>   -20.7544    10.9451    38.0000 </r>
       <r>   -20.5717     0.0000    38.0000 </r>
       <r>   -20.3890     0.0000    38.0000 </r>
       <r>   -20.2062     0.0000    38.0000 </r>
       <r>   -20.0235     0.0000    38.0000 </r>
       <r>   -19.8408     0.0000    38.0000 </r>
       <r>   -19.6581     0.0000    38.0000 </r>
       <r>   -19.4753     0.0727    38.0133 </r>
       <r>   -19.2926     0.0000    42.0000 </r>
       <r>   -19.1099     0.0000    42.0000 </r>
       <r>   -18.9272     0.0000    42.0000 </r>
       <r>   -18.7444     0.0000    42.0000 </r>
       <r>   -18.5617     0.0000    44.0000 </r>
       <r>   -18.3790    10.9453    46.0000 </r>
       <r>   -18.1962     0.0000    46.0000 </r>
       <r>   -18.0135     0.0000    48.0000 </r>
       <r>   -17.8308    10.6733    51.9503 </r>
       <r>   -17.6481     8.3230    53.5208 </r>
       <r>   -17.4653     0.0000    56.0000 </r>
       <r>   -17.2826    10.2748    57.8775 </r>
       <r>   -17.0999     0.0000    58.0000 </r>
       <r>   -16.9172     0.0000    58.0000 </r>
       <r>   -16.7344     0.0000    60.0000 </r>
       <r>   -16.5517    10.5816    61.9335 </r>
       <r>   -16.3690     0.0000    62.0000 </r>
       <r>   -16.1862     0.0000    62.0000 </r>
       <r>   -16.0035     0.0000    62.0000 </r>
       <r>   -15.8208    10.9450    64.0000 </r>
       <r>   -15.6381    10.9453    66.0000 </r>
       <r>   -15.4553     0.0000    66.0000 </r>
       <r>   -15.2726     0.1708    68.0312 </r>
       <r>   -15.0899     0.0000    70.0000 </r>
       <r>   -14.9071     0.0000    70.0000 </r>
       <r>   -14.7244    11.4803    72.0978 </r>
       <r>   -14.5417     0.0000    76.0000 </r>
       <r>   -14.3590     0.0000    76.0000 </r>
       <r>   -14.1762     0.0000    78.0000 </r>
       <r>   -13.9935    21.8910    84.0001 </r>
       <r>   -13.8108    10.4688    87.9129 </r>
       <r>   -13.6281     0.0000    90.0000 </r>
       <r>   -13.4453    10.8039    93.9742 </r>
       <r>   -13.2626     0.0000    96.0000 </r>
       <r>   -13.0799     0.0000   100.0000 </r>
       <r>   -12.8971     0.7995   100.1461 </r>
       <r>   -12.7144    10.9798   106.0063 </r>
       <r>   -12.5317    10.9453   110.0000 </r>
       <r>   -12.3490     0.0001   112.0000 </r>
       <r>   -12.1662    10.9453   118.0000 </r>
       <r>   -11.9835    10.9453   120.0000 </r>
       <r>   -11.8008     0.0000   120.0000 </r>
       <r>   -11.6181     0.0000   120.0000 </r>
       <r>   -11.4353    10.9419   121.9994 </r>
       <r>   -11.2526    10.9453   126.0000 </r>
       <r>   -11.0699    21.6247   131.9514 </r>
       <r>   -10.8871     0.0000   132.0000 </r>
       <r>   -10.7044    10.9453   134.0000 </r>
       <r>   -10.5217     7.6867   137.4046 </r>
       <r>   -10.3390     0.0000   138.0000 </r>
       <r>   -10.1562     0.0000   140.0000 </r>
       <r>    -9.9735    10.9453   144.0000 </r>
       <r>    -9.7908    10.8748   145.9871 </r>
       <r>    -9.6081     0.0000   150.0000 </r>
       <r>    -9.4253    10.9453   154.0000 </r>
       <r>    -9.2426     0.0000   154.0000 </r>
       <r>    -9.0599     0.0000   154.0000 </r>
       <r>    -8.8771     0.0003   154.0001 </r>
       <r>    -8.6944    10.9453   158.0000 </r>
       <r>    -8.5117     0.0000   158.0000 </r>
       <r>    -8.3290    10.9453   160.0000 </r>
       <r>    -8.1462     0.0000   160.0000 </r>
       <r>    -7.9635     0.0000   160.0000 </r>
       <r>    -7.7808     0.0000   160.0000 </r>
       <r>    -7.5980     0.0000   160.0000 </r>
       <r>    -7.4153    10.9453   162.0000 </r>
       <r>    -7.2326    10.9453   164.0000 </r>
       <r>    -7.0499     0.0000   166.0000 </r>
       <r>    -6.8671     0.0000   166.0000 </r>
       <r>    -6.6844     0.0000   166.0000 </r>
       <r>    -6.5017     0.0000   166.0000 </r>
       <r>    -6.3190     0.0000   166.0000 </r>
       <r>    -6.1362     0.0000   166.0000 </r>
       <r>    -5.9535     0.0000   166.0000 </r>
       <r>    -5.7708     0.0000   166.0000 </r>
       <r>    -5.5880    10.9453   168.0000 </r>
       <r>    -5.4053     0.0000   168.0000 </r>
       <r>    -5.2226     0.0000   168.0000 </r>
       <r>    -5.0399    10.9452   170.0000 </r>
       <r>    -4.8571     0.0000   172.0000 </r>
       <r>    -4.6744     0.0000   172.0000 </r>
       <r>    -4.4917     0.0000   172.0000 </r>
       <r>    -4.3090    10.9453   174.0000 </r>
       <r>    -4.1262    10.8639   175.9851 </r>
       <r>    -3.9435    10.9436   179.9997 </r>
       <r>    -3.7608     0.0000   182.0000 </r>
       <r>    -3.5780     0.0000   182.0000 </r>
       <r>    -3.3953     0.0000   184.0000 </r>
       <r>    -3.2126    10.9676   186.0041 </r>
       <r>    -3.0299     0.0000   188.0000 </r>
       <r>    -2.8471     0.2131   188.0389 </r>
       <r>    -2.6644    10.9453   192.0000 </r>
       <r>    -2.4817     0.0000   192.0000 </r>
       <r>    -2.2990     0.0000   192.0000 </r>
       <r>    -2.1162     0.0000   192.0000 </r>
       <r>    -1.9335    10.9453   194.0000 </r>
       <r>    -1.7508     0.0000   194.0000 </r>
       <r>    -1.5680    10.9460   196.0001 </r>
       <r>    -1.3853    10.8431   199.9813 </r>
       <r>    -1.2026    21.9280   204.0068 </r>
       <r>    -1.0199     0.0000   206.0000 </r>
       <r>    -0.8371    10.9453   210.0000 </r>
       <r>    -0.6544    10.9429   213.9996 </r>
       <r>    -0.4717    21.8746   219.9971 </r>
       <r>    -0.2889    10.9453   224.0000 </r>
       <r>    -0.1062    10.9453   228.0000 </r>
       <r>     0.0765    10.8032   231.9740 </r>
       <r>     0.2592    21.6902   237.9634 </r>
       <r>     0.4420    25.3854   246.6386 </r>
       <r>     0.6247    21.0255   251.8419 </r>
       <r>     0.8074     0.0000   256.0000 </r>
       <r>     0.9901     0.0000   256.0000 </r>
       <r>     1.1729     0.0000   256.0000 </r>
       <r>     1.3556     0.0000   256.0000 </r>
       <r>     1.5383     0.0000   256.0000 </r>
       <r>     1.7211     0.0000   256.0000 </r>
       <r>     1.9038     0.0000   256.0000 </r>
       <r>     2.0865     0.0000   256.0000 </r>
       <r>     2.2692     0.0000   256.0000 </r>
       <r>     2.4520     0.0000   256.0000 </r>
       <r>     2.6347     0.0000   256.0000 </r>
       <r>     2.8174     0.0000   256.0000 </r>
       <r>     3.0001     0.0000   256.0000 </r>
       <r>     3.1829     0.0000   256.0000 </r>
      </set>
      <set comment="spin 2">
       <r>   -51.6354     0.0000     0.0000 </r>
       <r>   -51.4526     0.0000     0.0000 </r>
       <r>   -51.2699     0.0000     0.0000 </r>
       <r>   -51.0872     0.0000     0.0000 </r>
       <r>   -50.9045     0.0000     0.0000 </r>
       <r>   -50.7217     0.0000     0.0000 </r>
       <r>   -50.5390     0.0000     0.0000 </r>
       <r>   -50.3563     0.0000     0.0000 </r>
       <r>   -50.1736     0.0000     0.0000 </r>
       <r>   -49.9908     0.0000     0.0000 </r>
       <r>   -49.8081     0.0000     0.0000 </r>
       <r>   -49.6254     0.0000     0.0000 </r>
       <r>   -49.4426     0.0000     0.0000 </r>
       <r>   -49.2599     0.0000     0.0000 </r>
       <r>   -49.0772    10.9453     2.0000 </r>
       <r>   -48.8945     0.0000     4.0000 </r>
       <r>   -48.7117    10.9453     6.0000 </r>
       <r>   -48.5290     0.0000     6.0000 </r>
       <r>   -48.3463     0.0000     6.0000 </r>
       <r>   -48.1636     0.0000     6.0000 </r>
       <r>   -47.9808     0.0000     6.0000 </r>
       <r>   -47.7981     0.0000     6.0000 </r>
       <r>   -47.6154     0.0000     6.0000 </r>
       <r>   -47.4326     0.0000     6.0000 </r>
       <r>   -47.2499     0.0000     6.0000 </r>
       <r>   -47.0672     0.0000     6.0000 </r>
       <r>   -46.8845     0.0000     6.0000 </r>
       <r>   -46.7017     0.0000     6.0000 </r>
       <r>   -46.5190     0.0000     6.0000 </r>
       <r>   -46.3363     0.0000     6.0000 </r>
       <r>   -46.1536     0.0000     6.0000 </r>
       <r>   -45.9708     0.0000     6.0000 </r>
       <r>   -45.7881     0.0000     6.0000 </r>
       <r>   -45.6054     0.0000     6.0000 </r>
       <r>   -45.4226     0.0000     6.0000 </r>
       <r>   -45.2399     0.0000     6.0000 </r>
       <r>   -45.0572     0.0000     6.0000 </r>
       <r>   -44.8745     0.0000     6.0000 </r>
       <r>   -44.6917     0.0000     6.0000 </r>
       <r>   -44.5090     0.0000     6.0000 </r>
       <r>   -44.3263     0.0000     6.0000 </r>
       <r>   -44.1435     0.0000     6.0000 </r>
       <r>   -43.9608     0.0000     6.0000 </r>
       <r>   -43.7781     0.0000     6.0000 </r>
       <r>   -43.5954     0.0000     6.0000 </r>
       <r>   -43.4126     0.0000     6.0000 </r>
       <r>   -43.2299     0.0000     6.0000 </r>
       <r>   -43.0472     0.0000     6.0000 </r>
       <r>   -42.8645     0.0000     6.0000 </r>
       <r>   -42.6817     0.0000     6.0000 </r>
       <r>   -42.4990     0.0000     6.0000 </r>
       <r>   -42.3163     0.0000     6.0000 </r>
       <r>   -42.1335     0.0000     6.0000 </r>
       <r>   -41.9508     0.0000     6.0000 </r>
       <r>   -41.7681     0.0000     6.0000 </r>
       <r>   -41.5854     0.0000     6.0000 </r>
       <r>   -41.4026     0.0000     6.0000 </r>
       <r>   -41.2199     0.0000     6.0000 </r>
       <r>   -41.0372     0.0000     6.0000 </r>
       <r>   -40.8545     0.0000     6.0000 </r>
       <r>   -40.6717     0.0000     6.0000 </r>
       <r>   -40.4890     0.0000     6.0000 </r>
       <r>   -40.3063     0.0000     6.0000 </r>
       <r>   -40.1235     0.0000     6.0000 </r>
       <r>   -39.9408     0.0000     6.0000 </r>
       <r>   -39.7581     0.0000     6.0000 </r>
       <r>   -39.5754     0.0000     6.0000 </r>
       <r>   -39.3926     0.0000     6.0000 </r>
       <r>   -39.2099     0.0000     6.0000 </r>
       <r>   -39.0272     0.0000     6.0000 </r>
       <r>   -38.8445     0.0000     6.0000 </r>
       <r>   -38.6617     0.0000     6.0000 </r>
       <r>   -38.4790     0.0000     6.0000 </r>
       <r>   -38.2963     0.0000     6.0000 </r>
       <r>   -38.1135     0.0000     6.0000 </r>
       <r>   -37.9308     0.0000     6.0000 </r>
       <r>   -37.7481     0.0000     6.0000 </r>
       <r>   -37.5654     0.0000     6.0000 </r>
       <r>   -37.3826     0.0000     6.0000 </r>
       <r>   -37.1999     0.0000     6.0000 </r>
       <r>   -37.0172     0.0000     6.0000 </r>
       <r>   -36.8344     0.0000     6.0000 </r>
       <r>   -36.6517     0.0000     6.0000 </r>
       <r>   -36.4690     0.0000     6.0000 </r>
       <r>   -36.2863     0.0000     6.0000 </r>
       <r>   -36.1035     0.0000     6.0000 </r>
       <r>   -35.9208     0.0000     6.0000 </r>
       <r>   -35.7381     0.0000     6.0000 </r>
       <r>   -35.5554     0.0000     6.0000 </r>
       <r>   -35.3726     0.0000     6.0000 </r>
       <r>   -35.1899     0.0000     6.0000 </r>
       <r>   -35.0072     0.0000     6.0000 </r>
       <r>   -34.8244     0.0000     6.0000 </r>
       <r>   -34.6417     0.0000     6.0000 </r>
       <r>   -34.4590     0.0000     6.0000 </r>
       <r>   -34.2763     0.0000     6.0000 </r>
       <r>   -34.0935     0.0000     6.0000 </r>
       <r>   -33.9108     0.0000     6.0000 </r>
       <r>   -33.7281     0.0000     6.0000 </r>
       <r>   -33.5454     0.0000     6.0000 </r>
       <r>   -33.3626     0.0000     6.0000 </r>
       <r>   -33.1799     0.0000     6.0000 </r>
       <r>   -32.9972     0.0000     6.0000 </r>
       <r>   -32.8144     0.0000     6.0000 </r>
       <r>   -32.6317     0.0000     6.0000 </r>
       <r>   -32.4490     0.0000     6.0000 </r>
       <r>   -32.2663     0.0000     6.0000 </r>
       <r>   -32.0835     0.0000     6.0000 </r>
       <r>   -31.9008     0.0000     6.0000 </r>
       <r>   -31.7181     0.0000     6.0000 </r>
       <r>   -31.5354     0.0000     6.0000 </r>
       <r>   -31.3526     0.0000     6.0000 </r>
       <r>   -31.1699     0.0000     6.0000 </r>
       <r>   -30.9872     0.0000     6.0000 </r>
       <r>   -30.8044     0.0000     6.0000 </r>
       <r>   -30.6217     0.0000     6.0000 </r>
       <r>   -30.4390     0.0000     6.0000 </r>
       <r>   -30.2563     0.0000     6.0000 </r>
       <r>   -30.0735     0.0000     6.0000 </r>
       <r>   -29.8908     0.0000     6.0000 </r>
       <r>   -29.7081     0.0000     6.0000 </r>
       <r>   -29.5253     0.0000     6.0000 </r>
       <r>   -29.3426     0.0000     6.0000 </r>
       <r>   -29.1599     0.1060     6.0194 </r>
       <r>   -28.9772     0.0000     8.0000 </r>
       <r>   -28.7944     0.0000     8.0000 </r>
       <r>   -28.6117     0.0000     8.0000 </r>
       <r>   -28.4290     0.0000     8.0000 </r>
       <r>   -28.2463     0.0000     8.0000 </r>
       <r>   -28.0635     0.0000     8.0000 </r>
       <r>   -27.8808     0.0000     8.0000 </r>
       <r>   -27.6981     0.0000     8.0000 </r>
       <r>   -27.5153     0.0000     8.0000 </r>
       <r>   -27.3326    10.9453    10.0000 </r>
       <r>   -27.1499     0.0000    10.0000 </r>
       <r>   -26.9672     0.0000    10.0000 </r>
       <r>   -26.7844    10.9453    12.0000 </r>
       <r>   -26.6017     0.0000    12.0000 </r>
       <r>   -26.4190     0.0000    14.0000 </r>
       <r>   -26.2363     0.0000    14.0000 </r>
       <r>   -26.0535    10.9453    18.0000 </r>
       <r>   -25.8708     0.0000    18.0000 </r>
       <r>   -25.6881     0.0000    18.0000 </r>
       <r>   -25.5053     0.0000    18.0000 </r>
       <r>   -25.3226     0.0000    18.0000 </r>
       <r>   -25.1399     0.0000    18.0000 </r>
       <r>   -24.9572     0.0000    18.0000 </r>
       <r>   -24.7744     0.0000    18.0000 </r>
       <r>   -24.5917     0.0000    18.0000 </r>
       <r>   -24.4090     0.0000    18.0000 </r>
       <r>   -24.2263     0.0000    18.0000 </r>
       <r>   -24.0435     0.0000    20.0000 </r>
       <r>   -23.8608     0.0000    20.0000 </r>
       <r>   -23.6781     0.0000    20.0000 </r>
       <r>   -23.4953     0.0000    20.0000 </r>
       <r>   -23.3126     0.0000    20.0000 </r>
       <r>   -23.1299     0.0000    20.0000 </r>
       <r>   -22.9472     0.0000    20.0000 </r>
       <r>   -22.7644     0.0000    22.0000 </r>
       <r>   -22.5817     0.0000    22.0000 </r>
       <r>   -22.3990    10.9364    25.9984 </r>
       <r>   -22.2162     0.0473    28.0086 </r>
       <r>   -22.0335    10.9449    31.9999 </r>
       <r>   -21.8508     0.0000    32.0000 </r>
       <r>   -21.6681     0.0000    32.0000 </r>
       <r>   -21.4853     0.0000    32.0000 </r>
       <r>   -21.3026    10.9453    34.0000 </r>
       <r>   -21.1199    10.6836    35.9522 </r>
       <r>   -20.9372     0.0000    36.0000 </r>
       <r>   -20.7544    10.9451    38.0000 </r>
       <r>   -20.5717     0.0000    38.0000 </r>
       <r>   -20.3890     0.0000    38.0000 </r>
       <r>   -20.2062     0.0000    38.0000 </r>
       <r>   -20.0235     0.0000    38.0000 </r>
       <r>   -19.8408     0.0000    38.0000 </r>
       <r>   -19.6581     0.0000    38.0000 </r>
       <r>   -19.4753     0.0727    38.0133 </r>
       <r>   -19.2926     0.0000    42.0000 </r>
       <r>   -19.1099     0.0000    42.0000 </r>
       <r>   -18.9272     0.0000    42.0000 </r>
       <r>   -18.7444     0.0000    42.0000 </r>
       <r>   -18.5617     0.0000    44.0000 </r>
       <r>   -18.3790    10.9453    46.0000 </r>
       <r>   -18.1962     0.0000    46.0000 </r>
       <r>   -18.0135     0.0000    48.0000 </r>
       <r>   -17.8308    10.6733    51.9503 </r>
       <r>   -17.6481     8.3230    53.5208 </r>
       <r>   -17.4653     0.0000    56.0000 </r>
       <r>   -17.2826    10.2748    57.8775 </r>
       <r>   -17.0999     0.0000    58.0000 </r>
       <r>   -16.9172     0.0000    58.0000 </r>
       <r>   -16.7344     0.0000    60.0000 </r>
       <r>   -16.5517    10.5816    61.9335 </r>
       <r>   -16.3690     0.0000    62.0000 </r>
       <r>   -16.1862     0.0000    62.0000 </r>
       <r>   -16.0035     0.0000    62.0000 </r>
       <r>   -15.8208    10.9450    64.0000 </r>
       <r>   -15.6381    10.9453    66.0000 </r>
       <r>   -15.4553     0.0000    66.0000 </r>
       <r>   -15.2726     0.1708    68.0312 </r>
       <r>   -15.0899     0.0000    70.0000 </r>
       <r>   -14.9071     0.0000    70.0000 </r>
       <r>   -14.7244    11.4803    72.0978 </r>
       <r>   -14.5417     0.0000    76.0000 </r>
       <r>   -14.3590     0.0000    76.0000 </r>
       <r>   -14.1762     0.0000    78.0000 </r>
       <r>   -13.9935    21.8910    84.0001 </r>
       <r>   -13.8108    10.4688    87.9129 </r>
       <r>   -13.6281     0.0000    90.0000 </r>
       <r>   -13.4453    10.8039    93.9742 </r>
       <r>   -13.2626     0.0000    96.0000 </r>
       <r>   -13.0799     0.0000   100.0000 </r>
       <r>   -12.8971     0.7995   100.1461 </r>
       <r>   -12.7144    10.9798   106.0063 </r>
       <r>   -12.5317    10.9453   110.0000 </r>
       <r>   -12.3490     0.0001   112.0000 </r>
       <r>   -12.1662    10.9453   118.0000 </r>
       <r>   -11.9835    10.9453   120.0000 </r>
       <r>   -11.8008     0.0000   120.0000 </r>
       <r>   -11.6181     0.0000   120.0000 </r>
       <r>   -11.4353    10.9419   121.9994 </r>
       <r>   -11.2526    10.9453   126.0000 </r>
       <r>   -11.0699    21.6247   131.9514 </r>
       <r>   -10.8871     0.0000   132.0000 </r>
       <r>   -10.7044    10.9453   134.0000 </r>
       <r>   -10.5217     7.6867   137.4046 </r>
       <r>   -10.3390     0.0000   138.0000 </r>
       <r>   -10.1562     0.0000   140.0000 </r>
       <r>    -9.9735    10.9453   144.0000 </r>
       <r>    -9.7908    10.8748   145.9871 </r>
       <r>    -9.6081     0.0000   150.0000 </r>
       <r>    -9.4253    10.9453   154.0000 </r>
       <r>    -9.2426     0.0000   154.0000 </r>
       <r>    -9.0599     0.0000   154.0000 </r>
       <r>    -8.8771     0.0003   154.0001 </r>
       <r>    -8.6944    10.9453   158.0000 </r>
       <r>    -8.5117     0.0000   158.0000 </r>
       <r>    -8.3290    10.9453   160.0000 </r>
       <r>    -8.1462     0.0000   160.0000 </r>
       <r>    -7.9635     0.0000   160.0000 </r>
       <r>    -7.7808     0.0000   160.0000 </r>
       <r>    -7.5980     0.0000   160.0000 </r>
       <r>    -7.4153    10.9453   162.0000 </r>
       <r>    -7.2326    10.9453   164.0000 </r>
       <r>    -7.0499     0.0000   166.0000 </r>
       <r>    -6.8671     0.0000   166.0000 </r>
       <r>    -6.6844     0.0000   166.0000 </r>
       <r>    -6.5017     0.0000   166.0000 </r>
       <r>    -6.3190     0.0000   166.0000 </r>
       <r>    -6.1362     0.0000   166.0000 </r>
       <r>    -5.9535     0.0000   166.0000 </r>
       <r>    -5.7708     0.0000   166.0000 </r>
       <r>    -5.5880    10.9453   168.0000 </r>
       <r>    -5.4053     0.0000   168.0000 </r>
       <r>    -5.2226     0.0000   168.0000 </r>
       <r>    -5.0399    10.9452   170.0000 </r>
       <r>    -4.8571     0.0000   172.0000 </r>
       <r>    -4.6744     0.0000   172.0000 </r>
       <r>    -4.4917     0.0000   172.0000 </r>
       <r>    -4.3090    10.9453   174.0000 </r>
       <r>    -4.1262    10.8639   175.9851 </r>
       <r>    -3.9435    10.9436   179.9997 </r>
       <r>    -3.7608     0.0000   182.0000 </r>
       <r>    -3.5780     0.0000   182.0000 </r>
       <r>    -3.3953     0.0000   184.0000 </r>
       <r>    -3.2126    10.9676   186.0041 </r>
       <r>    -3.0299     0.0000   188.0000 </r>
       <r>    -2.8471     0.2131   188.0389 </r>
       <r>    -2.6644    10.9453   192.0000 </r>
       <r>    -2.4817     0.0000   192.0000 </r>
       <r>    -2.2990     0.0000   192.0000 </r>
       <r>    -2.1162     0.0000   192.0000 </r>
       <r>    -1.9335    10.9453   194.0000 </r>
       <r>    -1.7508     0.0000   194.0000 </r>
       <r>    -1.5680    10.9460   196.0001 </r>
       <r>    -1.3853    10.8430   199.9813 </r>
       <r>    -1.2026    21.9280   204.0068 </r>
       <r>    -1.0199     0.0000   206.0000 </r>
       <r>    -0.8371    10.9453   210.0000 </r>
       <r>    -0.6544    10.9429   213.9996 </r>
       <r>    -0.4717    21.8746   219.9971 </r>
       <r>    -0.2889    10.9453   224.0000 </r>
       <r>    -0.1062    10.9453   228.0000 </r>
       <r>     0.0765    10.8032   231.9740 </r>
       <r>     0.2592    21.6901   237.9634 </r>
       <r>     0.4420    25.3846   246.6385 </r>
       <r>     0.6247    21.0243   251.8417 </r>
       <r>     0.8074     0.0000   256.0000 </r>
       <r>     0.9901     0.0000   256.0000 </r>
       <r>     1.1729     0.0000   256.0000 </r>
       <r>     1.3556     0.0000   256.0000 </r>
       <r>     1.5383     0.0000   256.0000 </r>
       <r>     1.7211     0.0000   256.0000 </r>
       <r>     1.9038     0.0000   256.0000 </r>
       <r>     2.0865     0.0000   256.0000 </r>
       <r>     2.2692     0.0000   256.0000 </r>
       <r>     2.4520     0.0000   256.0000 </r>
       <r>     2.6347     0.0000   256.0000 </r>
       <r>     2.8174     0.0000   256.0000 </r>
       <r>     3.0001     0.0000   256.0000 </r>
       <r>     3.1829     0.0000   256.0000 </r>
      </set>
     </set>
    </array>
   </total>
  </dos>
 </calculation>
 <structure name="finalpos" >
  <crystal>
   <varray name="basis" >
    <v>      20.00000000       0.00000000       0.00000000 </v>
    <v>       0.00000000      20.00000000       0.00000000 </v>
    <v>       0.00000000       0.00000000      20.00000000 </v>
   </varray>
   <i name="volume">   8000.00000000 </i>
   <varray name="rec_basis" >
    <v>       0.05000000       0.00000000       0.00000000 </v>
    <v>       0.00000000       0.05000000       0.00000000 </v>
    <v>       0.00000000       0.00000000       0.05000000 </v>
   </varray>
  </crystal>
  <varray name="positions" >
   <v>       0.26422003       0.42785518       0.52821594 </v>
   <v>       0.43793752       0.56561110       0.32757008 </v>
   <v>       0.45581208       0.52423376       0.38051465 </v>
   <v>       0.47372925       0.61530131       0.44986522 </v>
   <v>       0.45595175       0.65963312       0.39935201 </v>
   <v>       0.43785737       0.63472201       0.33675972 </v>
   <v>       0.52307882       0.32955005       0.67474498 </v>
   <v>       0.49710163       0.37190466       0.62618823 </v>
   <v>       0.60227374       0.41933300       0.60593616 </v>
   <v>       0.63096398       0.37761922       0.65422416 </v>
   <v>       0.73964927       0.52855915       0.53463181 </v>
   <v>       0.70082162       0.56612858       0.49044049 </v>
   <v>       0.63257913       0.55363620       0.48652424 </v>
   <v>       0.63952130       0.46927713       0.56732841 </v>
   <v>       0.70843899       0.47974495       0.57314689 </v>
   <v>       0.59134754       0.33224398       0.68903016 </v>
   <v>       0.36211554       0.48866484       0.56417415 </v>
   <v>       0.40790931       0.62211625       0.69058213 </v>
   <v>       0.47619960       0.62606623       0.67660612 </v>
   <v>       0.50295190       0.58590820       0.62668073 </v>
   <v>       0.39825425       0.53800137       0.60426081 </v>
   <v>       0.36904589       0.57756069       0.65398228 </v>
   <v>       0.37289802       0.40579857       0.48223443 </v>
   <v>       0.30486503       0.39173492       0.48443166 </v>
   <v>       0.29334713       0.47671938       0.56830116 </v>
   <v>       0.48989745       0.29510618       0.70074864 </v>
   <v>       0.61334240       0.29968355       0.72673159 </v>
   <v>       0.68424189       0.38076917       0.66478776 </v>
   <v>       0.54225374       0.36233861       0.46129841 </v>
   <v>       0.31579090       0.57306911       0.66420366 </v>
   <v>       0.44416348       0.37118871       0.61364770 </v>
   <v>       0.42392665       0.66833230       0.29622671 </v>
   <v>       0.45642762       0.71313270       0.40950260 </v>
   <v>       0.48809132       0.63358802       0.49907234 </v>
   <v>       0.56912778       0.41808713       0.41480476 </v>
   <v>       0.73767440       0.44963919       0.60776512 </v>
   <v>       0.72277620       0.60481012       0.45904817 </v>
   <v>       0.45570253       0.47012894       0.37468790 </v>
   <v>       0.40614333       0.37888556       0.44852541 </v>
   <v>       0.28443799       0.35306162       0.45202062 </v>
   <v>       0.79326502       0.53703787       0.53892527 </v>
   <v>       0.55589708       0.58769132       0.61440612 </v>
   <v>       0.42412006       0.54328620       0.27986105 </v>
   <v>       0.50894741       0.65984570       0.70400156 </v>
   <v>       0.26265982       0.50568523       0.60265428 </v>
   <v>       0.21072272       0.41813760       0.53105039 </v>
   <v>       0.60090654       0.58197914       0.45254259 </v>
   <v>       0.38544357       0.65296704       0.72941133 </v>
   <v>       0.47424490       0.54794204       0.44140236 </v>
   <v>       0.40180479       0.45306079       0.52108436 </v>
   <v>       0.53520702       0.41608490       0.59173240 </v>
   <v>       0.46544808       0.54254992       0.59041194 </v>
   <v>       0.60138410       0.50650621       0.52397638 </v>
   <v>       0.53073984       0.40562607       0.44215451 </v>
   <v>       0.50088568       0.48087016       0.51934246 </v>
  </varray>
  <varray name="selective"  type="logical" >
   <v type="logical" >  T  T  T </v>
   <v type="logical" >  T  T  T </v>
   <v type="logical" >  T  T  T </v>
   <v type="logical" >  T  T  T </v>
   <v type="logical" >  T  T  T </v>
   <v type="logical" >  T  T  T </v>
   <v type="logical" >  T  T  T </v>
   <v type="logical" >  T  T  T </v>
   <v type="logical" >  T  T  T </v>
   <v type="logical" >  T  T  T </v>
   <v type="logical" >  T  T  T </v>
   <v type="logical" >  T  T  T </v>
   <v type="logical" >  T  T  T </v>
   <v type="logical" >  T  T  T </v>
   <v type="logical" >  T  T  T </v>
   <v type="logical" >  T  T  T </v>
   <v type="logical" >  T  T  T </v>
   <v type="logical" >  T  T  T </v>
   <v type="logical" >  T  T  T </v>
   <v type="logical" >  T  T  T </v>
   <v type="logical" >  T  T  T </v>
   <v type="logical" >  T  T  T </v>
   <v type="logical" >  T  T  T </v>
   <v type="logical" >  T  T  T </v>
   <v type="logical" >  T  T  T </v>
   <v type="logical" >  T  T  T </v>
   <v type="logical" >  T  T  T </v>
   <v type="logical" >  T  T  T </v>
   <v type="logical" >  T  T  T </v>
   <v type="logical" >  T  T  T </v>
   <v type="logical" >  T  T  T </v>
   <v type="logical" >  T  T  T </v>
   <v type="logical" >  T  T  T </v>
   <v type="logical" >  T  T  T </v>
   <v type="logical" >  T  T  T </v>
   <v type="logical" >  T  T  T </v>
   <v type="logical" >  T  T  T </v>
   <v type="logical" >  T  T  T </v>
   <v type="logical" >  T  T  T </v>
   <v type="logical" >  T  T  T </v>
   <v type="logical" >  T  T  T </v>
   <v type="logical" >  T  T  T </v>
   <v type="logical" >  T  T  T </v>
   <v type="logical" >  T  T  T </v>
   <v type="logical" >  T  T  T </v>
   <v type="logical" >  T  T  T </v>
   <v type="logical" >  T  T  T </v>
   <v type="logical" >  T  T  T </v>
   <v type="logical" >  T  T  T </v>
   <v type="logical" >  T  T  T </v>
   <v type="logical" >  T  T  T </v>
   <v type="logical" >  T  T  T </v>
   <v type="logical" >  T  T  T </v>
   <v type="logical" >  T  T  T </v>
   <v type="logical" >  T  T  T </v>
  </varray>
  <nose>
   <v>      -3.00000000       0.00000000       0.00010000       0.00010000 </v>
  </nose>
 </structure>
</modeling>
