  55  55   0   0
  0.1454545E+03  0.2000000E-08  0.2000000E-08  0.2000000E-08  0.5000000E-15
  1.000000000000000E-004
  CAR 
 c2_oh2_ruthenium_mol                    
      3.17978566    -51.54801699  301     -6.99046433      1.00000000
    -51.548  0.0000E+00  0.0000E+00  0.0000E+00  0.0000E+00
    -51.366  0.0000E+00  0.0000E+00  0.0000E+00  0.0000E+00
    -51.183  0.0000E+00  0.0000E+00  0.0000E+00  0.0000E+00
    -51.001  0.0000E+00  0.0000E+00  0.0000E+00  0.0000E+00
    -50.818  0.0000E+00  0.0000E+00  0.0000E+00  0.0000E+00
    -50.636  0.0000E+00  0.0000E+00  0.0000E+00  0.0000E+00
    -50.453  0.0000E+00  0.0000E+00  0.0000E+00  0.0000E+00
    -50.271  0.0000E+00  0.0000E+00  0.0000E+00  0.0000E+00
    -50.089  0.0000E+00  0.0000E+00  0.0000E+00  0.0000E+00
    -49.906  0.0000E+00  0.0000E+00  0.0000E+00  0.0000E+00
    -49.724  0.0000E+00  0.0000E+00  0.0000E+00  0.0000E+00
    -49.541  0.0000E+00  0.0000E+00  0.0000E+00  0.0000E+00
    -49.359  0.0000E+00  0.0000E+00  0.0000E+00  0.0000E+00
    -49.176  0.0000E+00  0.0000E+00  0.0000E+00  0.0000E+00
    -48.994  0.1096E+02  0.1096E+02  0.2000E+01  0.2000E+01
    -48.812  0.0000E+00  0.0000E+00  0.4000E+01  0.4000E+01
    -48.629  0.1096E+02  0.1096E+02  0.6000E+01  0.6000E+01
    -48.447  0.0000E+00  0.0000E+00  0.6000E+01  0.6000E+01
    -48.264  0.0000E+00  0.0000E+00  0.6000E+01  0.6000E+01
    -48.082  0.0000E+00  0.0000E+00  0.6000E+01  0.6000E+01
    -47.899  0.0000E+00  0.0000E+00  0.6000E+01  0.6000E+01
    -47.717  0.0000E+00  0.0000E+00  0.6000E+01  0.6000E+01
    -47.535  0.0000E+00  0.0000E+00  0.6000E+01  0.6000E+01
    -47.352  0.0000E+00  0.0000E+00  0.6000E+01  0.6000E+01
    -47.170  0.0000E+00  0.0000E+00  0.6000E+01  0.6000E+01
    -46.987  0.0000E+00  0.0000E+00  0.6000E+01  0.6000E+01
    -46.805  0.0000E+00  0.0000E+00  0.6000E+01  0.6000E+01
    -46.623  0.0000E+00  0.0000E+00  0.6000E+01  0.6000E+01
    -46.440  0.0000E+00  0.0000E+00  0.6000E+01  0.6000E+01
    -46.258  0.0000E+00  0.0000E+00  0.6000E+01  0.6000E+01
    -46.075  0.0000E+00  0.0000E+00  0.6000E+01  0.6000E+01
    -45.893  0.0000E+00  0.0000E+00  0.6000E+01  0.6000E+01
    -45.710  0.0000E+00  0.0000E+00  0.6000E+01  0.6000E+01
    -45.528  0.0000E+00  0.0000E+00  0.6000E+01  0.6000E+01
    -45.346  0.0000E+00  0.0000E+00  0.6000E+01  0.6000E+01
    -45.163  0.0000E+00  0.0000E+00  0.6000E+01  0.6000E+01
    -44.981  0.0000E+00  0.0000E+00  0.6000E+01  0.6000E+01
    -44.798  0.0000E+00  0.0000E+00  0.6000E+01  0.6000E+01
    -44.616  0.0000E+00  0.0000E+00  0.6000E+01  0.6000E+01
    -44.433  0.0000E+00  0.0000E+00  0.6000E+01  0.6000E+01
    -44.251  0.0000E+00  0.0000E+00  0.6000E+01  0.6000E+01
    -44.069  0.0000E+00  0.0000E+00  0.6000E+01  0.6000E+01
    -43.886  0.0000E+00  0.0000E+00  0.6000E+01  0.6000E+01
    -43.704  0.0000E+00  0.0000E+00  0.6000E+01  0.6000E+01
    -43.521  0.0000E+00  0.0000E+00  0.6000E+01  0.6000E+01
    -43.339  0.0000E+00  0.0000E+00  0.6000E+01  0.6000E+01
    -43.156  0.0000E+00  0.0000E+00  0.6000E+01  0.6000E+01
    -42.974  0.0000E+00  0.0000E+00  0.6000E+01  0.6000E+01
    -42.792  0.0000E+00  0.0000E+00  0.6000E+01  0.6000E+01
    -42.609  0.0000E+00  0.0000E+00  0.6000E+01  0.6000E+01
    -42.427  0.0000E+00  0.0000E+00  0.6000E+01  0.6000E+01
    -42.244  0.0000E+00  0.0000E+00  0.6000E+01  0.6000E+01
    -42.062  0.0000E+00  0.0000E+00  0.6000E+01  0.6000E+01
    -41.879  0.0000E+00  0.0000E+00  0.6000E+01  0.6000E+01
    -41.697  0.0000E+00  0.0000E+00  0.6000E+01  0.6000E+01
    -41.515  0.0000E+00  0.0000E+00  0.6000E+01  0.6000E+01
    -41.332  0.0000E+00  0.0000E+00  0.6000E+01  0.6000E+01
    -41.150  0.0000E+00  0.0000E+00  0.6000E+01  0.6000E+01
    -40.967  0.0000E+00  0.0000E+00  0.6000E+01  0.6000E+01
    -40.785  0.0000E+00  0.0000E+00  0.6000E+01  0.6000E+01
    -40.602  0.0000E+00  0.0000E+00  0.6000E+01  0.6000E+01
    -40.420  0.0000E+00  0.0000E+00  0.6000E+01  0.6000E+01
    -40.238  0.0000E+00  0.0000E+00  0.6000E+01  0.6000E+01
    -40.055  0.0000E+00  0.0000E+00  0.6000E+01  0.6000E+01
    -39.873  0.0000E+00  0.0000E+00  0.6000E+01  0.6000E+01
    -39.690  0.0000E+00  0.0000E+00  0.6000E+01  0.6000E+01
    -39.508  0.0000E+00  0.0000E+00  0.6000E+01  0.6000E+01
    -39.325  0.0000E+00  0.0000E+00  0.6000E+01  0.6000E+01
    -39.143  0.0000E+00  0.0000E+00  0.6000E+01  0.6000E+01
    -38.961  0.0000E+00  0.0000E+00  0.6000E+01  0.6000E+01
    -38.778  0.0000E+00  0.0000E+00  0.6000E+01  0.6000E+01
    -38.596  0.0000E+00  0.0000E+00  0.6000E+01  0.6000E+01
    -38.413  0.0000E+00  0.0000E+00  0.6000E+01  0.6000E+01
    -38.231  0.0000E+00  0.0000E+00  0.6000E+01  0.6000E+01
    -38.048  0.0000E+00  0.0000E+00  0.6000E+01  0.6000E+01
    -37.866  0.0000E+00  0.0000E+00  0.6000E+01  0.6000E+01
    -37.684  0.0000E+00  0.0000E+00  0.6000E+01  0.6000E+01
    -37.501  0.0000E+00  0.0000E+00  0.6000E+01  0.6000E+01
    -37.319  0.0000E+00  0.0000E+00  0.6000E+01  0.6000E+01
    -37.136  0.0000E+00  0.0000E+00  0.6000E+01  0.6000E+01
    -36.954  0.0000E+00  0.0000E+00  0.6000E+01  0.6000E+01
    -36.772  0.0000E+00  0.0000E+00  0.6000E+01  0.6000E+01
    -36.589  0.0000E+00  0.0000E+00  0.6000E+01  0.6000E+01
    -36.407  0.0000E+00  0.0000E+00  0.6000E+01  0.6000E+01
    -36.224  0.0000E+00  0.0000E+00  0.6000E+01  0.6000E+01
    -36.042  0.0000E+00  0.0000E+00  0.6000E+01  0.6000E+01
    -35.859  0.0000E+00  0.0000E+00  0.6000E+01  0.6000E+01
    -35.677  0.0000E+00  0.0000E+00  0.6000E+01  0.6000E+01
    -35.495  0.0000E+00  0.0000E+00  0.6000E+01  0.6000E+01
    -35.312  0.0000E+00  0.0000E+00  0.6000E+01  0.6000E+01
    -35.130  0.0000E+00  0.0000E+00  0.6000E+01  0.6000E+01
    -34.947  0.0000E+00  0.0000E+00  0.6000E+01  0.6000E+01
    -34.765  0.0000E+00  0.0000E+00  0.6000E+01  0.6000E+01
    -34.582  0.0000E+00  0.0000E+00  0.6000E+01  0.6000E+01
    -34.400  0.0000E+00  0.0000E+00  0.6000E+01  0.6000E+01
    -34.218  0.0000E+00  0.0000E+00  0.6000E+01  0.6000E+01
    -34.035  0.0000E+00  0.0000E+00  0.6000E+01  0.6000E+01
    -33.853  0.0000E+00  0.0000E+00  0.6000E+01  0.6000E+01
    -33.670  0.0000E+00  0.0000E+00  0.6000E+01  0.6000E+01
    -33.488  0.0000E+00  0.0000E+00  0.6000E+01  0.6000E+01
    -33.305  0.0000E+00  0.0000E+00  0.6000E+01  0.6000E+01
    -33.123  0.0000E+00  0.0000E+00  0.6000E+01  0.6000E+01
    -32.941  0.0000E+00  0.0000E+00  0.6000E+01  0.6000E+01
    -32.758  0.0000E+00  0.0000E+00  0.6000E+01  0.6000E+01
    -32.576  0.0000E+00  0.0000E+00  0.6000E+01  0.6000E+01
    -32.393  0.0000E+00  0.0000E+00  0.6000E+01  0.6000E+01
    -32.211  0.0000E+00  0.0000E+00  0.6000E+01  0.6000E+01
    -32.028  0.0000E+00  0.0000E+00  0.6000E+01  0.6000E+01
    -31.846  0.0000E+00  0.0000E+00  0.6000E+01  0.6000E+01
    -31.664  0.0000E+00  0.0000E+00  0.6000E+01  0.6000E+01
    -31.481  0.0000E+00  0.0000E+00  0.6000E+01  0.6000E+01
    -31.299  0.0000E+00  0.0000E+00  0.6000E+01  0.6000E+01
    -31.116  0.0000E+00  0.0000E+00  0.6000E+01  0.6000E+01
    -30.934  0.0000E+00  0.0000E+00  0.6000E+01  0.6000E+01
    -30.751  0.0000E+00  0.0000E+00  0.6000E+01  0.6000E+01
    -30.569  0.0000E+00  0.0000E+00  0.6000E+01  0.6000E+01
    -30.387  0.0000E+00  0.0000E+00  0.6000E+01  0.6000E+01
    -30.204  0.0000E+00  0.0000E+00  0.6000E+01  0.6000E+01
    -30.022  0.0000E+00  0.0000E+00  0.6000E+01  0.6000E+01
    -29.839  0.0000E+00  0.0000E+00  0.6000E+01  0.6000E+01
    -29.657  0.0000E+00  0.0000E+00  0.6000E+01  0.6000E+01
    -29.474  0.0000E+00  0.0000E+00  0.6000E+01  0.6000E+01
    -29.292  0.0000E+00  0.0000E+00  0.6000E+01  0.6000E+01
    -29.110  0.1096E+02  0.1096E+02  0.8000E+01  0.8000E+01
    -28.927  0.0000E+00  0.0000E+00  0.8000E+01  0.8000E+01
    -28.745  0.0000E+00  0.0000E+00  0.8000E+01  0.8000E+01
    -28.562  0.0000E+00  0.0000E+00  0.8000E+01  0.8000E+01
    -28.380  0.0000E+00  0.0000E+00  0.8000E+01  0.8000E+01
    -28.197  0.0000E+00  0.0000E+00  0.8000E+01  0.8000E+01
    -28.015  0.0000E+00  0.0000E+00  0.8000E+01  0.8000E+01
    -27.833  0.0000E+00  0.0000E+00  0.8000E+01  0.8000E+01
    -27.650  0.0000E+00  0.0000E+00  0.8000E+01  0.8000E+01
    -27.468  0.1096E+02  0.1096E+02  0.1000E+02  0.1000E+02
    -27.285  0.0000E+00  0.0000E+00  0.1000E+02  0.1000E+02
    -27.103  0.0000E+00  0.0000E+00  0.1000E+02  0.1000E+02
    -26.921  0.0000E+00  0.0000E+00  0.1000E+02  0.1000E+02
    -26.738  0.1096E+02  0.1096E+02  0.1200E+02  0.1200E+02
    -26.556  0.1096E+02  0.1096E+02  0.1400E+02  0.1400E+02
    -26.373  0.0000E+00  0.0000E+00  0.1400E+02  0.1400E+02
    -26.191  0.1703E+00  0.1703E+00  0.1403E+02  0.1403E+02
    -26.008  0.0000E+00  0.0000E+00  0.1800E+02  0.1800E+02
    -25.826  0.0000E+00  0.0000E+00  0.1800E+02  0.1800E+02
    -25.644  0.0000E+00  0.0000E+00  0.1800E+02  0.1800E+02
    -25.461  0.0000E+00  0.0000E+00  0.1800E+02  0.1800E+02
    -25.279  0.0000E+00  0.0000E+00  0.1800E+02  0.1800E+02
    -25.096  0.0000E+00  0.0000E+00  0.1800E+02  0.1800E+02
    -24.914  0.0000E+00  0.0000E+00  0.1800E+02  0.1800E+02
    -24.731  0.0000E+00  0.0000E+00  0.1800E+02  0.1800E+02
    -24.549  0.0000E+00  0.0000E+00  0.1800E+02  0.1800E+02
    -24.367  0.0000E+00  0.0000E+00  0.1800E+02  0.1800E+02
    -24.184  0.0000E+00  0.0000E+00  0.1800E+02  0.1800E+02
    -24.002  0.2316E+01  0.2316E+01  0.1842E+02  0.1842E+02
    -23.819  0.0000E+00  0.0000E+00  0.2000E+02  0.2000E+02
    -23.637  0.0000E+00  0.0000E+00  0.2000E+02  0.2000E+02
    -23.454  0.0000E+00  0.0000E+00  0.2000E+02  0.2000E+02
    -23.272  0.0000E+00  0.0000E+00  0.2000E+02  0.2000E+02
    -23.090  0.0000E+00  0.0000E+00  0.2000E+02  0.2000E+02
    -22.907  0.1096E+02  0.1096E+02  0.2200E+02  0.2200E+02
    -22.725  0.0000E+00  0.0000E+00  0.2200E+02  0.2200E+02
    -22.542  0.7769E-02  0.7769E-02  0.2200E+02  0.2200E+02
    -22.360  0.1096E+02  0.1096E+02  0.2600E+02  0.2600E+02
    -22.177  0.5121E+01  0.5121E+01  0.2893E+02  0.2893E+02
    -21.995  0.1096E+02  0.1096E+02  0.3200E+02  0.3200E+02
    -21.813  0.0000E+00  0.0000E+00  0.3200E+02  0.3200E+02
    -21.630  0.0000E+00  0.0000E+00  0.3200E+02  0.3200E+02
    -21.448  0.1096E+02  0.1096E+02  0.3400E+02  0.3400E+02
    -21.265  0.0000E+00  0.0000E+00  0.3400E+02  0.3400E+02
    -21.083  0.1096E+02  0.1096E+02  0.3600E+02  0.3600E+02
    -20.900  0.0000E+00  0.0000E+00  0.3600E+02  0.3600E+02
    -20.718  0.1096E+02  0.1096E+02  0.3800E+02  0.3800E+02
    -20.536  0.0000E+00  0.0000E+00  0.3800E+02  0.3800E+02
    -20.353  0.0000E+00  0.0000E+00  0.3800E+02  0.3800E+02
    -20.171  0.0000E+00  0.0000E+00  0.3800E+02  0.3800E+02
    -19.988  0.0000E+00  0.0000E+00  0.3800E+02  0.3800E+02
    -19.806  0.0000E+00  0.0000E+00  0.3800E+02  0.3800E+02
    -19.623  0.1539E-06  0.1539E-06  0.3800E+02  0.3800E+02
    -19.441  0.0000E+00  0.0000E+00  0.4000E+02  0.4000E+02
    -19.259  0.1096E+02  0.1096E+02  0.4200E+02  0.4200E+02
    -19.076  0.0000E+00  0.0000E+00  0.4200E+02  0.4200E+02
    -18.894  0.0000E+00  0.0000E+00  0.4200E+02  0.4200E+02
    -18.711  0.1041E-02  0.1041E-02  0.4200E+02  0.4200E+02
    -18.529  0.0000E+00  0.0000E+00  0.4400E+02  0.4400E+02
    -18.346  0.1096E+02  0.1096E+02  0.4600E+02  0.4600E+02
    -18.164  0.2877E+00  0.2877E+00  0.4605E+02  0.4605E+02
    -17.982  0.1095E-13  0.1095E-13  0.4800E+02  0.4800E+02
    -17.799  0.1096E+02  0.1096E+02  0.5200E+02  0.5200E+02
    -17.617  0.1096E+02  0.1096E+02  0.5400E+02  0.5400E+02
    -17.434  0.0000E+00  0.0000E+00  0.5600E+02  0.5600E+02
    -17.252  0.1094E+02  0.1094E+02  0.5800E+02  0.5800E+02
    -17.070  0.0000E+00  0.0000E+00  0.5800E+02  0.5800E+02
    -16.887  0.1644E-05  0.1644E-05  0.5800E+02  0.5800E+02
    -16.705  0.0000E+00  0.0000E+00  0.6000E+02  0.6000E+02
    -16.522  0.1096E+02  0.1096E+02  0.6200E+02  0.6200E+02
    -16.340  0.0000E+00  0.0000E+00  0.6200E+02  0.6200E+02
    -16.157  0.0000E+00  0.0000E+00  0.6200E+02  0.6200E+02
    -15.975  0.0000E+00  0.0000E+00  0.6200E+02  0.6200E+02
    -15.793  0.1096E+02  0.1096E+02  0.6400E+02  0.6400E+02
    -15.610  0.1069E+02  0.1069E+02  0.6795E+02  0.6795E+02
    -15.428  0.0000E+00  0.0000E+00  0.6800E+02  0.6800E+02
    -15.245  0.1096E+02  0.1096E+02  0.7000E+02  0.7000E+02
    -15.063  0.0000E+00  0.0000E+00  0.7000E+02  0.7000E+02
    -14.880  0.0000E+00  0.0000E+00  0.7000E+02  0.7000E+02
    -14.698  0.2142E+02  0.2142E+02  0.7391E+02  0.7391E+02
    -14.516  0.0000E+00  0.0000E+00  0.7600E+02  0.7600E+02
    -14.333  0.1093E+02  0.1093E+02  0.7799E+02  0.7799E+02
    -14.151  0.9737E-14  0.9737E-14  0.7800E+02  0.7800E+02
    -13.968  0.1096E+02  0.1096E+02  0.8400E+02  0.8400E+02
    -13.786  0.1096E+02  0.1096E+02  0.8600E+02  0.8600E+02
    -13.603  0.1444E-04  0.1444E-04  0.9000E+02  0.9000E+02
    -13.421  0.1096E+02  0.1096E+02  0.9400E+02  0.9400E+02
    -13.239  0.1096E+02  0.1096E+02  0.9800E+02  0.9800E+02
    -13.056  0.0000E+00  0.0000E+00  0.1000E+03  0.1000E+03
    -12.874  0.1067E+02  0.1067E+02  0.1019E+03  0.1019E+03
    -12.691  0.1652E+02  0.1652E+02  0.1070E+03  0.1070E+03
    -12.509  0.9300E+01  0.9300E+01  0.1097E+03  0.1097E+03
    -12.326  0.1633E+01  0.1633E+01  0.1123E+03  0.1123E+03
    -12.144  0.1096E+02  0.1096E+02  0.1180E+03  0.1180E+03
    -11.962  0.1096E+02  0.1096E+02  0.1200E+03  0.1200E+03
    -11.779  0.0000E+00  0.0000E+00  0.1200E+03  0.1200E+03
    -11.597  0.0000E+00  0.0000E+00  0.1200E+03  0.1200E+03
    -11.414  0.1064E+02  0.1064E+02  0.1239E+03  0.1239E+03
    -11.232  0.1096E+02  0.1096E+02  0.1260E+03  0.1260E+03
    -11.049  0.2895E+02  0.2895E+02  0.1313E+03  0.1313E+03
    -10.867  0.0000E+00  0.0000E+00  0.1320E+03  0.1320E+03
    -10.685  0.1096E+02  0.1096E+02  0.1340E+03  0.1340E+03
    -10.502  0.1016E+02  0.1016E+02  0.1379E+03  0.1379E+03
    -10.320  0.1096E+02  0.1096E+02  0.1400E+03  0.1400E+03
    -10.137  0.1430E-08  0.1430E-08  0.1400E+03  0.1400E+03
     -9.955  0.0000E+00  0.0000E+00  0.1440E+03  0.1440E+03
     -9.772  0.1094E+02  0.1094E+02  0.1460E+03  0.1460E+03
     -9.590  0.1594E-04  0.1594E-04  0.1500E+03  0.1500E+03
     -9.408  0.1096E+02  0.1096E+02  0.1540E+03  0.1540E+03
     -9.225  0.0000E+00  0.0000E+00  0.1540E+03  0.1540E+03
     -9.043  0.1546E-12  0.1546E-12  0.1540E+03  0.1540E+03
     -8.860  0.0000E+00  0.0000E+00  0.1560E+03  0.1560E+03
     -8.678  0.1096E+02  0.1096E+02  0.1580E+03  0.1580E+03
     -8.495  0.0000E+00  0.0000E+00  0.1580E+03  0.1580E+03
     -8.313  0.1096E+02  0.1096E+02  0.1600E+03  0.1600E+03
     -8.131  0.0000E+00  0.0000E+00  0.1600E+03  0.1600E+03
     -7.948  0.0000E+00  0.0000E+00  0.1600E+03  0.1600E+03
     -7.766  0.0000E+00  0.0000E+00  0.1600E+03  0.1600E+03
     -7.583  0.0000E+00  0.0000E+00  0.1600E+03  0.1600E+03
     -7.401  0.1440E-01  0.1441E-01  0.1600E+03  0.1600E+03
     -7.218  0.1096E+02  0.1096E+02  0.1640E+03  0.1640E+03
     -7.036  0.1096E+02  0.1096E+02  0.1660E+03  0.1660E+03
     -6.854  0.0000E+00  0.0000E+00  0.1660E+03  0.1660E+03
     -6.671  0.0000E+00  0.0000E+00  0.1660E+03  0.1660E+03
     -6.489  0.0000E+00  0.0000E+00  0.1660E+03  0.1660E+03
     -6.306  0.0000E+00  0.0000E+00  0.1660E+03  0.1660E+03
     -6.124  0.0000E+00  0.0000E+00  0.1660E+03  0.1660E+03
     -5.942  0.0000E+00  0.0000E+00  0.1660E+03  0.1660E+03
     -5.759  0.1339E-13  0.1339E-13  0.1660E+03  0.1660E+03
     -5.577  0.0000E+00  0.0000E+00  0.1680E+03  0.1680E+03
     -5.394  0.0000E+00  0.0000E+00  0.1680E+03  0.1680E+03
     -5.212  0.0000E+00  0.0000E+00  0.1680E+03  0.1680E+03
     -5.029  0.3835E-09  0.3835E-09  0.1680E+03  0.1680E+03
     -4.847  0.0000E+00  0.0000E+00  0.1720E+03  0.1720E+03
     -4.665  0.0000E+00  0.0000E+00  0.1720E+03  0.1720E+03
     -4.482  0.0000E+00  0.0000E+00  0.1720E+03  0.1720E+03
     -4.300  0.1096E+02  0.1096E+02  0.1740E+03  0.1740E+03
     -4.117  0.1049E+02  0.1049E+02  0.1759E+03  0.1759E+03
     -3.935  0.1085E+02  0.1085E+02  0.1800E+03  0.1800E+03
     -3.752  0.1096E+02  0.1096E+02  0.1820E+03  0.1820E+03
     -3.570  0.6086E-15  0.6086E-15  0.1820E+03  0.1820E+03
     -3.388  0.1096E+02  0.1096E+02  0.1860E+03  0.1860E+03
     -3.205  0.0000E+00  0.0000E+00  0.1860E+03  0.1860E+03
     -3.023  0.0000E+00  0.0000E+00  0.1880E+03  0.1880E+03
     -2.840  0.1093E+02  0.1093E+02  0.1900E+03  0.1900E+03
     -2.658  0.1096E+02  0.1096E+02  0.1920E+03  0.1920E+03
     -2.475  0.0000E+00  0.0000E+00  0.1920E+03  0.1920E+03
     -2.293  0.0000E+00  0.0000E+00  0.1920E+03  0.1920E+03
     -2.111  0.0000E+00  0.0000E+00  0.1920E+03  0.1920E+03
     -1.928  0.1096E+02  0.1096E+02  0.1940E+03  0.1940E+03
     -1.746  0.4186E-11  0.4185E-11  0.1940E+03  0.1940E+03
     -1.563  0.7161E+01  0.7161E+01  0.1973E+03  0.1973E+03
     -1.381  0.1419E+01  0.1419E+01  0.1983E+03  0.1983E+03
     -1.198  0.1103E+02  0.1103E+02  0.2040E+03  0.2040E+03
     -1.016  0.1488E-03  0.1490E-03  0.2060E+03  0.2060E+03
     -0.834  0.1096E+02  0.1096E+02  0.2100E+03  0.2100E+03
     -0.651  0.1095E+02  0.1095E+02  0.2140E+03  0.2140E+03
     -0.469  0.2193E+02  0.2193E+02  0.2200E+03  0.2200E+03
     -0.286  0.1096E+02  0.1096E+02  0.2240E+03  0.2240E+03
     -0.104  0.1096E+02  0.1096E+02  0.2280E+03  0.2280E+03
      0.079  0.1093E+02  0.1093E+02  0.2320E+03  0.2320E+03
      0.261  0.1196E+02  0.1196E+02  0.2362E+03  0.2362E+03
      0.443  0.2419E+02  0.2420E+02  0.2464E+03  0.2464E+03
      0.626  0.9561E+01  0.9566E+01  0.2517E+03  0.2517E+03
      0.808  0.0000E+00  0.0000E+00  0.2560E+03  0.2560E+03
      0.991  0.0000E+00  0.0000E+00  0.2560E+03  0.2560E+03
      1.173  0.0000E+00  0.0000E+00  0.2560E+03  0.2560E+03
      1.356  0.0000E+00  0.0000E+00  0.2560E+03  0.2560E+03
      1.538  0.0000E+00  0.0000E+00  0.2560E+03  0.2560E+03
      1.720  0.0000E+00  0.0000E+00  0.2560E+03  0.2560E+03
      1.903  0.0000E+00  0.0000E+00  0.2560E+03  0.2560E+03
      2.085  0.0000E+00  0.0000E+00  0.2560E+03  0.2560E+03
      2.268  0.0000E+00  0.0000E+00  0.2560E+03  0.2560E+03
      2.450  0.0000E+00  0.0000E+00  0.2560E+03  0.2560E+03
      2.633  0.0000E+00  0.0000E+00  0.2560E+03  0.2560E+03
      2.815  0.0000E+00  0.0000E+00  0.2560E+03  0.2560E+03
      2.997  0.0000E+00  0.0000E+00  0.2560E+03  0.2560E+03
      3.180  0.0000E+00  0.0000E+00  0.2560E+03  0.2560E+03
