   55   55    1    2
  0.1454545E+03  0.2000000E-08  0.2000000E-08  0.2000000E-08  0.5000000E-15
  1.000000000000000E-004
  CAR 
 c2_oh2_ruthenium_mol                    
    166      1    128
 
  0.0000000E+00  0.0000000E+00  0.0000000E+00  0.1000000E+01
    1      -49.060389    -49.060390
    2      -48.914117    -48.914117
    3      -48.703596    -48.703596
    4      -29.169666    -29.169666
    5      -27.499569    -27.499569
    6      -26.800136    -26.800136
    7      -26.598989    -26.598989
    8      -26.175554    -26.175554
    9      -26.102872    -26.102872
   10      -23.996019    -23.996019
   11      -22.986579    -22.986579
   12      -22.519717    -22.519717
   13      -22.400840    -22.400840
   14      -22.277234    -22.277234
   15      -22.176846    -22.176846
   16      -22.051120    -22.051120
   17      -21.526120    -21.526120
   18      -21.127077    -21.127077
   19      -20.763984    -20.763984
   20      -19.584200    -19.584200
   21      -19.288108    -19.288108
   22      -18.684946    -18.684946
   23      -18.421866    -18.421866
   24      -18.150346    -18.150346
   25      -17.925459    -17.925459
   26      -17.826014    -17.826014
   27      -17.645091    -17.645091
   28      -17.572143    -17.572143
   29      -17.271817    -17.271817
   30      -16.850847    -16.850847
   31      -16.594774    -16.594774
   32      -15.825198    -15.825198
   33      -15.724495    -15.724494
   34      -15.623964    -15.623964
   35      -15.278481    -15.278481
   36      -14.731828    -14.731828
   37      -14.709848    -14.709848
   38      -14.661230    -14.661230
   39      -14.352690    -14.352690
   40      -14.094425    -14.094425
   41      -14.052064    -14.052064
   42      -14.011202    -14.011202
   43      -13.837399    -13.837399
   44      -13.757333    -13.757333
   45      -13.714267    -13.714267
   46      -13.570191    -13.570191
   47      -13.492046    -13.492046
   48      -13.367923    -13.367923
   49      -13.267270    -13.267270
   50      -13.139389    -13.139389
   51      -12.887310    -12.887310
   52      -12.833469    -12.833469
   53      -12.741473    -12.741473
   54      -12.691399    -12.691399
   55      -12.516128    -12.516128
   56      -12.433105    -12.433105
   57      -12.319064    -12.319064
   58      -12.291353    -12.291353
   59      -12.205307    -12.205308
   60      -12.033552    -12.033552
   61      -11.529243    -11.529243
   62      -11.427674    -11.427675
   63      -11.291942    -11.291942
   64      -11.123553    -11.123553
   65      -11.089729    -11.089729
   66      -11.051983    -11.051983
   67      -10.762775    -10.762775
   68      -10.655255    -10.655255
   69      -10.512422    -10.512422
   70      -10.388054    -10.388054
   71      -10.092621    -10.092621
   72      -10.048745    -10.048745
   73       -9.792298     -9.792298
   74       -9.726922     -9.726922
   75       -9.690979     -9.690979
   76       -9.556962     -9.556962
   77       -9.464919     -9.464920
   78       -8.988971     -8.988971
   79       -8.753367     -8.753367
   80       -8.359366     -8.359367
   81       -7.379651     -7.379652
   82       -7.260268     -7.260269
   83       -7.108137     -7.108137
   84       -5.703124     -5.703124
   85       -4.983276     -4.983276
   86       -4.944609     -4.944609
   87       -4.339516     -4.339516
   88       -4.129345     -4.129346
   89       -4.088730     -4.088730
   90       -3.951290     -3.951290
   91       -3.827501     -3.827501
   92       -3.511441     -3.511441
   93       -3.456904     -3.456904
   94       -3.139430     -3.139429
   95       -2.859397     -2.859398
   96       -2.710133     -2.710133
   97       -1.962379     -1.962379
   98       -1.695034     -1.695034
   99       -1.566076     -1.566077
  100       -1.372881     -1.372881
  101       -1.282093     -1.282098
  102       -1.241977     -1.241977
  103       -1.180557     -1.180558
  104       -0.986341     -0.986343
  105       -0.863257     -0.863259
  106       -0.782612     -0.782613
  107       -0.673410     -0.673410
  108       -0.584204     -0.584205
  109       -0.521713     -0.521714
  110       -0.505205     -0.505206
  111       -0.411049     -0.411053
  112       -0.344400     -0.344403
  113       -0.257494     -0.257498
  114       -0.176865     -0.176869
  115       -0.063782     -0.063785
  116        0.059433      0.059433
  117        0.116612      0.116603
  118        0.181056      0.181053
  119        0.270751      0.270750
  120        0.278178      0.278177
  121        0.324472      0.324468
  122        0.374599      0.374596
  123        0.408981      0.408973
  124        0.449175      0.449166
  125        0.527945      0.527937
  126        0.617786      0.617773
  127        0.658888      0.658901
  128        0.692155      0.692158
