       N       E                     dE             d eps       ncg     rms          rms(c)
DAV:   1     0.909327233521E+03    0.90933E+03   -0.58811E+04   768   0.974E+02
DAV:   2    -0.673477619929E+02   -0.97667E+03   -0.97024E+03  1024   0.160E+02
DAV:   3    -0.390534191785E+03   -0.32319E+03   -0.32275E+03   768   0.849E+01
DAV:   4    -0.412243558674E+03   -0.21709E+02   -0.21682E+02   704   0.265E+01
DAV:   5    -0.412511629464E+03   -0.26807E+00   -0.26786E+00   832   0.326E+00    0.572E+01
DAV:   6    -0.393408955991E+03    0.19103E+02   -0.34597E+02   576   0.230E+01    0.384E+01
DAV:   7    -0.382949502125E+03    0.10459E+02   -0.23231E+01   704   0.202E+01    0.235E+01
DAV:   8    -0.378823728233E+03    0.41258E+01   -0.17216E+01   768   0.956E+00    0.938E+00
DAV:   9    -0.377700429666E+03    0.11233E+01   -0.59786E+00   768   0.485E+00    0.356E+00
DAV:  10    -0.377666283587E+03    0.34146E-01   -0.32373E-01   768   0.139E+00    0.256E+00
DAV:  11    -0.377547347832E+03    0.11894E+00   -0.11400E-01   768   0.830E-01    0.130E+00
DAV:  12    -0.377465852513E+03    0.81495E-01   -0.10825E-01   768   0.720E-01    0.699E-01
DAV:  13    -0.377444858524E+03    0.20994E-01   -0.14650E-02   768   0.339E-01    0.544E-01
DAV:  14    -0.377430915871E+03    0.13943E-01   -0.29487E-02   768   0.419E-01    0.280E-01
DAV:  15    -0.377431880747E+03   -0.96488E-03   -0.60706E-03   768   0.217E-01    0.256E-01
DAV:  16    -0.377441604073E+03   -0.97233E-02   -0.17142E-03   768   0.131E-01    0.130E-01
DAV:  17    -0.377447814927E+03   -0.62109E-02   -0.16424E-03   768   0.114E-01    0.899E-02
DAV:  18    -0.377451963747E+03   -0.41488E-02   -0.51499E-04   768   0.677E-02    0.720E-02
DAV:  19    -0.377456843989E+03   -0.48802E-02   -0.41514E-04   768   0.608E-02    0.383E-02
DAV:  20    -0.377459191547E+03   -0.23476E-02   -0.12324E-04   768   0.332E-02    0.270E-02
DAV:  21    -0.377460649436E+03   -0.14579E-02   -0.39026E-05   768   0.193E-02    0.178E-02
DAV:  22    -0.377461992806E+03   -0.13434E-02   -0.42507E-05   768   0.173E-02    0.105E-02
DAV:  23    -0.377462691100E+03   -0.69829E-03   -0.16265E-05   640   0.968E-03    0.888E-03
DAV:  24    -0.377463156462E+03   -0.46536E-03   -0.10498E-05   640   0.699E-03    0.411E-03
DAV:  25    -0.377463406930E+03   -0.25047E-03   -0.57746E-06   640   0.474E-03    0.227E-03
DAV:  26    -0.377463550716E+03   -0.14379E-03   -0.22280E-06   640   0.295E-03    0.161E-03
DAV:  27    -0.377463627476E+03   -0.76760E-04   -0.12105E-06   640   0.200E-03    0.119E-03
DAV:  28    -0.377463664975E+03   -0.37499E-04   -0.37308E-07   640   0.124E-03    0.585E-04
DAV:  29    -0.377463688565E+03   -0.23590E-04   -0.20145E-07   640   0.958E-04    0.387E-04
DAV:  30    -0.377463698208E+03   -0.96426E-05    0.23182E-08   640   0.535E-04
   1 F= -.37746370E+03 E0= -.37746370E+03  d E =-.412302E-62  mag=    -0.0000
