 vasp.5.3.5 31Mar14 (build Apr 08 2014 12:00:03) complex                        
  
 VASP binary ID code NSC-NSCPATCH-BUILD02 date 2017.03.15  19:01:23
 running on   64 total cores
 distrk:  each k-point on   64 cores,    1 groups
 distr:  one band on NCORES_PER_BAND=   1 cores,   64 groups


--------------------------------------------------------------------------------------------------------


 INCAR:
 POTCAR:    PAW_PBE C_h 06Feb2004                 
 POTCAR:    PAW_PBE C_h 06Feb2004                 
 POTCAR:    PAW_PBE H 15Jun2001                   
 POTCAR:    PAW_PBE N_h 06Feb2004                 
 POTCAR:    PAW_PBE O_h 06Feb2004                 
 POTCAR:    PAW_PBE Ru_pv 28Jan2005               

 ----------------------------------------------------------------------------- 
|                                                                             |
|           W    W    AA    RRRRR   N    N  II  N    N   GGGG   !!!           |
|           W    W   A  A   R    R  NN   N  II  NN   N  G    G  !!!           |
|           W    W  A    A  R    R  N N  N  II  N N  N  G       !!!           |
|           W WW W  AAAAAA  RRRRR   N  N N  II  N  N N  G  GGG   !            |
|           WW  WW  A    A  R   R   N   NN  II  N   NN  G    G                |
|           W    W  A    A  R    R  N    N  II  N    N   GGGG   !!!           |
|                                                                             |
|      For optimal performance we recommend to set                            |
|        NCORE= 4 - approx SQRT( number of cores)                             |
|      NCORE specifies how many cores store one orbital (NPAR=cpu/NCORE).     |
|      This setting can  greatly improve the performance of VASP for DFT.     |
|      The default, NPAR=number of cores might be grossly inefficient         |
|      on modern multi-core architectures or massively parallel machines.     |
|      Do your own testing !!!!                                               |
|      Unfortunately you need to use the default for GW and RPA calculations. |
|      (for HF NCORE is supported but not extensively tested yet)             |
|                                                                             |
 ----------------------------------------------------------------------------- 

 POTCAR:    PAW_PBE C_h 06Feb2004                 
   VRHFIN =C: s2p2                                                              
   LEXCH  = PE                                                                  
   EATOM  =   147.1560 eV,   10.8157 Ry                                         
                                                                                
   TITEL  = PAW_PBE C_h 06Feb2004                                               
   LULTRA =        F    use ultrasoft PP ?                                      
   IUNSCR =        1    unscreen: 0-lin 1-nonlin 2-no                           
   RPACOR =    0.800    partial core radius                                     
   POMASS =   12.011; ZVAL   =    4.000    mass and valenz                      
   RCORE  =    1.100    outmost cutoff radius                                   
   RWIGS  =    1.630; RWIGS  =    0.863    wigner-seitz radius (au A)           
   ENMAX  =  700.000; ENMIN  =  500.000 eV                                      
   ICORE  =        2    local potential                                         
   LCOR   =        T    correct aug charges                                     
   LPAW   =        T    paw PP                                                  
   EAUG   =  946.768                                                            
   DEXC   =    0.000                                                            
   RMAX   =    1.128    core radius for proj-oper                               
   RAUG   =    1.300    factor for augmentation sphere                          
   RDEP   =    1.162    radius for radial grids                                 
   RDEPT  =    1.088    core radius for aug-charge                              
                                                                                
   Atomic configuration                                                         
    4 entries                                                                   
     n  l   j            E        occ.                                          
     1  0  0.50      -273.3789   2.0000                                         
     2  0  0.50       -13.7508   2.0000                                         
     2  1  0.50        -5.2854   2.0000                                         
     3  2  1.50        -5.4423   0.0000                                         
   Description                                                                  
     l       E           TYP  RCUT    TYP  RCUT                                 
     0    -13.7508458     23  1.100                                             
     0     -8.2022199     23  1.100                                             
     1     -5.2854383     23  1.100                                             
     1      1.1560700     23  1.100                                             
     2     -5.4423304      7  1.100                                             
  local pseudopotential read in
  partial core-charges read in
  partial kinetic energy density read in
  atomic valenz-charges read in
  non local Contribution for L=           0  read in
    real space projection operators read in
  non local Contribution for L=           0  read in
    real space projection operators read in
  non local Contribution for L=           1  read in
    real space projection operators read in
  non local Contribution for L=           1  read in
    real space projection operators read in
    PAW grid and wavefunctions read in
 
   number of l-projection  operators is LMAX  =           4
   number of lm-projection operators is LMMAX =           8
 
 POTCAR:    PAW_PBE C_h 06Feb2004                 
   VRHFIN =C: s2p2                                                              
   LEXCH  = PE                                                                  
   EATOM  =   147.1560 eV,   10.8157 Ry                                         
                                                                                
   TITEL  = PAW_PBE C_h 06Feb2004                                               
   LULTRA =        F    use ultrasoft PP ?                                      
   IUNSCR =        1    unscreen: 0-lin 1-nonlin 2-no                           
   RPACOR =    0.800    partial core radius                                     
   POMASS =   12.011; ZVAL   =    4.000    mass and valenz                      
   RCORE  =    1.100    outmost cutoff radius                                   
   RWIGS  =    1.630; RWIGS  =    0.863    wigner-seitz radius (au A)           
   ENMAX  =  700.000; ENMIN  =  500.000 eV                                      
   ICORE  =        2    local potential                                         
   LCOR   =        T    correct aug charges                                     
   LPAW   =        T    paw PP                                                  
   EAUG   =  946.768                                                            
   DEXC   =    0.000                                                            
   RMAX   =    1.128    core radius for proj-oper                               
   RAUG   =    1.300    factor for augmentation sphere                          
   RDEP   =    1.162    radius for radial grids                                 
   RDEPT  =    1.088    core radius for aug-charge                              
                                                                                
   Atomic configuration                                                         
    4 entries                                                                   
     n  l   j            E        occ.                                          
     1  0  0.50      -273.3789   2.0000                                         
     2  0  0.50       -13.7508   2.0000                                         
     2  1  0.50        -5.2854   2.0000                                         
     3  2  1.50        -5.4423   0.0000                                         
   Description                                                                  
     l       E           TYP  RCUT    TYP  RCUT                                 
     0    -13.7508458     23  1.100                                             
     0     -8.2022199     23  1.100                                             
     1     -5.2854383     23  1.100                                             
     1      1.1560700     23  1.100                                             
     2     -5.4423304      7  1.100                                             
  local pseudopotential read in
  partial core-charges read in
  partial kinetic energy density read in
  atomic valenz-charges read in
  non local Contribution for L=           0  read in
    real space projection operators read in
  non local Contribution for L=           0  read in
    real space projection operators read in
  non local Contribution for L=           1  read in
    real space projection operators read in
  non local Contribution for L=           1  read in
    real space projection operators read in
    PAW grid and wavefunctions read in
 
   number of l-projection  operators is LMAX  =           4
   number of lm-projection operators is LMMAX =           8
 
 POTCAR:    PAW_PBE H 15Jun2001                   
   VRHFIN =H: ultrasoft test                                                    
   LEXCH  = PE                                                                  
   EATOM  =    12.4884 eV,    0.9179 Ry                                         
                                                                                
   TITEL  = PAW_PBE H 15Jun2001                                                 
   LULTRA =        F    use ultrasoft PP ?                                      
   IUNSCR =        0    unscreen: 0-lin 1-nonlin 2-no                           
   RPACOR =    0.000    partial core radius                                     
   POMASS =    1.000; ZVAL   =    1.000    mass and valenz                      
   RCORE  =    1.100    outmost cutoff radius                                   
   RWIGS  =    0.700; RWIGS  =    0.370    wigner-seitz radius (au A)           
   ENMAX  =  250.000; ENMIN  =  200.000 eV                                      
   RCLOC  =    0.701    cutoff for local pot                                    
   LCOR   =        T    correct aug charges                                     
   LPAW   =        T    paw PP                                                  
   EAUG   =  400.000                                                            
   RMAX   =    1.123    core radius for proj-oper                               
   RAUG   =    1.200    factor for augmentation sphere                          
   RDEP   =    1.112    radius for radial grids                                 
   RDEPT  =    0.926    core radius for aug-charge                              
                                                                                
   Atomic configuration                                                         
    2 entries                                                                   
     n  l   j            E        occ.                                          
     1  0  0.50        -6.4927   1.0000                                         
     2  1  0.50        -3.4015   0.0000                                         
   Description                                                                  
     l       E           TYP  RCUT    TYP  RCUT                                 
     0     -6.4927494     23  1.100                                             
     0      6.8029130     23  1.100                                             
     1     -4.0817478     23  1.100                                             
  local pseudopotential read in
  atomic valenz-charges read in
  non local Contribution for L=           0  read in
    real space projection operators read in
  non local Contribution for L=           0  read in
    real space projection operators read in
  non local Contribution for L=           1  read in
    real space projection operators read in
    PAW grid and wavefunctions read in
 
   number of l-projection  operators is LMAX  =           3
   number of lm-projection operators is LMMAX =           5
 
 POTCAR:    PAW_PBE N_h 06Feb2004                 
   VRHFIN =N: s2p3                                                              
   LEXCH  = PE                                                                  
   EATOM  =   264.5486 eV,   19.4438 Ry                                         
                                                                                
   TITEL  = PAW_PBE N_h 06Feb2004                                               
   LULTRA =        F    use ultrasoft PP ?                                      
   IUNSCR =        1    unscreen: 0-lin 1-nonlin 2-no                           
   RPACOR =    0.800    partial core radius                                     
   POMASS =   14.001; ZVAL   =    5.000    mass and valenz                      
   RCORE  =    1.100    outmost cutoff radius                                   
   RWIGS  =    1.480; RWIGS  =    0.783    wigner-seitz radius (au A)           
   ENMAX  =  700.000; ENMIN  =  500.000 eV                                      
   ICORE  =        2    local potential                                         
   LCOR   =        T    correct aug charges                                     
   LPAW   =        T    paw PP                                                  
   EAUG   =  904.640                                                            
   DEXC   =    0.000                                                            
   RMAX   =    1.127    core radius for proj-oper                               
   RAUG   =    1.300    factor for augmentation sphere                          
   RDEP   =    1.115    radius for radial grids                                 
   RDEPT  =    1.106    core radius for aug-charge                              
                                                                                
   Atomic configuration                                                         
    4 entries                                                                   
     n  l   j            E        occ.                                          
     1  0  0.50      -384.7179   2.0000                                         
     2  0  0.50       -18.5828   2.0000                                         
     2  1  0.50        -7.0898   3.0000                                         
     3  2  1.50        -6.8029   0.0000                                         
   Description                                                                  
     l       E           TYP  RCUT    TYP  RCUT                                 
     0    -18.5828117     23  1.100                                             
     0    -15.0750597     23  1.100                                             
     1     -7.0897851     23  1.100                                             
     1     -1.9663412     23  1.100                                             
     2     -6.8029130      7  1.100                                             
  local pseudopotential read in
  partial core-charges read in
  partial kinetic energy density read in
  kinetic energy density of atom read in
  atomic valenz-charges read in
  non local Contribution for L=           0  read in
    real space projection operators read in
  non local Contribution for L=           0  read in
    real space projection operators read in
  non local Contribution for L=           1  read in
    real space projection operators read in
  non local Contribution for L=           1  read in
    real space projection operators read in
    PAW grid and wavefunctions read in
 
   number of l-projection  operators is LMAX  =           4
   number of lm-projection operators is LMMAX =           8
 
 POTCAR:    PAW_PBE O_h 06Feb2004                 
   VRHFIN =O: s2p4                                                              
   LEXCH  = PE                                                                  
   EATOM  =   432.3788 eV,   31.7789 Ry                                         
                                                                                
   TITEL  = PAW_PBE O_h 06Feb2004                                               
   LULTRA =        F    use ultrasoft PP ?                                      
   IUNSCR =        1    unscreen: 0-lin 1-nonlin 2-no                           
   RPACOR =    0.800    partial core radius                                     
   POMASS =   16.000; ZVAL   =    6.000    mass and valenz                      
   RCORE  =    1.100    outmost cutoff radius                                   
   RWIGS  =    1.400; RWIGS  =    0.741    wigner-seitz radius (au A)           
   ENMAX  =  700.000; ENMIN  =  500.000 eV                                      
   ICORE  =        2    local potential                                         
   LCOR   =        T    correct aug charges                                     
   LPAW   =        T    paw PP                                                  
   EAUG   =  888.804                                                            
   DEXC   =    0.000                                                            
   RMAX   =    1.128    core radius for proj-oper                               
   RAUG   =    1.300    factor for augmentation sphere                          
   RDEP   =    1.125    radius for radial grids                                 
   RDEPT  =    1.088    core radius for aug-charge                              
                                                                                
   Atomic configuration                                                         
    4 entries                                                                   
     n  l   j            E        occ.                                          
     1  0  0.50      -514.6923   2.0000                                         
     2  0  0.50       -23.9615   2.0000                                         
     2  1  0.50        -9.0305   4.0000                                         
     3  2  1.50        -9.5241   0.0000                                         
   Description                                                                  
     l       E           TYP  RCUT    TYP  RCUT                                 
     0    -23.9615319     23  1.100                                             
     0    -25.3221145     23  1.100                                             
     1     -9.0304911     23  1.100                                             
     1     -5.4802209     23  1.100                                             
     2     -9.5240782      7  1.100                                             
  local pseudopotential read in
  partial core-charges read in
  partial kinetic energy density read in
  atomic valenz-charges read in
  non local Contribution for L=           0  read in
    real space projection operators read in
  non local Contribution for L=           0  read in
    real space projection operators read in
  non local Contribution for L=           1  read in
    real space projection operators read in
  non local Contribution for L=           1  read in
    real space projection operators read in
    PAW grid and wavefunctions read in
 
   number of l-projection  operators is LMAX  =           4
   number of lm-projection operators is LMMAX =           8
 
 POTCAR:    PAW_PBE Ru_pv 28Jan2005               
   VRHFIN =Ru: 4p5s4d                                                           
   LEXCH  = PE                                                                  
   EATOM  =  1873.4746 eV,  137.6965 Ry                                         
                                                                                
   TITEL  = PAW_PBE Ru_pv 28Jan2005                                             
   LULTRA =        F    use ultrasoft PP ?                                      
   IUNSCR =        1    unscreen: 0-lin 1-nonlin 2-no                           
   RPACOR =    2.170    partial core radius                                     
   POMASS =  101.070; ZVAL   =   14.000    mass and valenz                      
   RCORE  =    2.500    outmost cutoff radius                                   
   RWIGS  =    2.650; RWIGS  =    1.402    wigner-seitz radius (au A)           
   ENMAX  =  240.049; ENMIN  =  180.037 eV                                      
   ICORE  =        3    local potential                                         
   LCOR   =        T    correct aug charges                                     
   LPAW   =        T    paw PP                                                  
   EAUG   =  430.792                                                            
   DEXC   =    0.000                                                            
   RMAX   =    2.546    core radius for proj-oper                               
   RAUG   =    1.300    factor for augmentation sphere                          
   RDEP   =    2.520    radius for radial grids                                 
   RDEPT  =    2.044    core radius for aug-charge                              
                                                                                
   Atomic configuration                                                         
   11 entries                                                                   
     n  l   j            E        occ.                                          
     1  0  0.50    -21933.2692   2.0000                                         
     2  0  0.50     -3153.4096   2.0000                                         
     2  1  1.50     -2823.9548   6.0000                                         
     3  0  0.50      -555.3322   2.0000                                         
     3  1  1.50      -447.1024   6.0000                                         
     3  2  2.50      -273.0570  10.0000                                         
     4  0  0.50       -76.3589   2.0000                                         
     4  1  1.50       -46.4050   6.0000                                         
     4  2  2.50        -5.2029   7.0000                                         
     5  0  0.50        -4.2392   1.0000                                         
     4  3  2.50        -1.3606   0.0000                                         
   Description                                                                  
     l       E           TYP  RCUT    TYP  RCUT                                 
     1    -46.4050190     23  2.100                                             
     1      4.0817478     23  2.100                                             
     2     -5.2028758     23  2.500                                             
     2     -6.5634584     23  2.500                                             
     0     -4.2392192     23  2.500                                             
     0      7.0918828     23  2.500                                             
     3     -5.4423304     23  2.500                                             
  local pseudopotential read in
  partial core-charges read in
  partial kinetic energy density read in
  atomic valenz-charges read in
  non local Contribution for L=           1  read in
    real space projection operators read in
  non local Contribution for L=           1  read in
    real space projection operators read in
  non local Contribution for L=           2  read in
    real space projection operators read in
  non local Contribution for L=           2  read in
    real space projection operators read in
  non local Contribution for L=           0  read in
    real space projection operators read in
  non local Contribution for L=           0  read in
    real space projection operators read in
    PAW grid and wavefunctions read in
 
   number of l-projection  operators is LMAX  =           6
   number of lm-projection operators is LMMAX =          18
 
 Optimization of the real space projectors (new method)

 maximal supplied QI-value         = 34.20
 optimisation between [QCUT,QGAM] = [ 13.34, 27.02] = [ 49.83,204.46] Ry 
 Optimized for a Real-space Cutoff    1.04 Angstroem

   l    n(q)    QCUT    max X(q) W(low)/X(q) W(high)/X(q)  e(spline) 
   0      8    13.340   134.812    0.72E-04    0.21E-03    0.27E-06
   0      8    13.340    80.524    0.70E-04    0.21E-03    0.27E-06
   1      8    13.340    79.026    0.21E-03    0.16E-03    0.33E-06
   1      8    13.340    45.188    0.20E-03    0.15E-03    0.33E-06
 Optimization of the real space projectors (new method)

 maximal supplied QI-value         = 34.20
 optimisation between [QCUT,QGAM] = [ 13.34, 27.02] = [ 49.83,204.46] Ry 
 Optimized for a Real-space Cutoff    1.04 Angstroem

   l    n(q)    QCUT    max X(q) W(low)/X(q) W(high)/X(q)  e(spline) 
   0      8    13.340   134.812    0.72E-04    0.21E-03    0.27E-06
   0      8    13.340    80.524    0.70E-04    0.21E-03    0.27E-06
   1      8    13.340    79.026    0.21E-03    0.16E-03    0.33E-06
   1      8    13.340    45.188    0.20E-03    0.15E-03    0.33E-06
 Optimization of the real space projectors (new method)

 maximal supplied QI-value         = 34.20
 optimisation between [QCUT,QGAM] = [ 13.34, 27.02] = [ 49.83,204.46] Ry 
 Optimized for a Real-space Cutoff    0.98 Angstroem

   l    n(q)    QCUT    max X(q) W(low)/X(q) W(high)/X(q)  e(spline) 
   0      8    13.340    19.460    0.18E-03    0.41E-04    0.19E-06
   0      8    13.340    12.209    0.17E-03    0.45E-04    0.18E-06
   1      7    13.340     4.655    0.16E-03    0.30E-03    0.14E-06
 Optimization of the real space projectors (new method)

 maximal supplied QI-value         = 34.20
 optimisation between [QCUT,QGAM] = [ 13.34, 27.02] = [ 49.83,204.46] Ry 
 Optimized for a Real-space Cutoff    1.04 Angstroem

   l    n(q)    QCUT    max X(q) W(low)/X(q) W(high)/X(q)  e(spline) 
   0      8    13.340   148.539    0.85E-04    0.19E-03    0.21E-06
   0      8    13.340   106.192    0.84E-04    0.19E-03    0.21E-06
   1      8    13.340    73.877    0.18E-03    0.11E-03    0.36E-06
   1      8    13.340    50.042    0.17E-03    0.11E-03    0.36E-06
 Optimization of the real space projectors (new method)

 maximal supplied QI-value         = 34.20
 optimisation between [QCUT,QGAM] = [ 13.34, 27.02] = [ 49.83,204.46] Ry 
 Optimized for a Real-space Cutoff    0.98 Angstroem

   l    n(q)    QCUT    max X(q) W(low)/X(q) W(high)/X(q)  e(spline) 
   0      8    13.340   280.207    0.16E-03    0.35E-03    0.14E-06
   0      8    13.340   228.978    0.16E-03    0.35E-03    0.14E-06
   1      7    13.340    86.127    0.23E-03    0.25E-04    0.30E-06
   1      7    13.340    65.368    0.22E-03    0.27E-04    0.30E-06
 Optimization of the real space projectors (new method)

 maximal supplied QI-value         = 15.12
 optimisation between [QCUT,QGAM] = [ 13.45, 27.06] = [ 50.69,205.06] Ry 
 Optimized for a Real-space Cutoff    1.40 Angstroem

   l    n(q)    QCUT    max X(q) W(low)/X(q) W(high)/X(q)  e(spline) 
   1     11    13.455     3.180    0.18E-04    0.25E-04    0.55E-07
   1     11    13.455     5.351    0.12E-03    0.15E-03    0.24E-06
   2     10    13.455    66.565    0.13E-03    0.46E-04    0.26E-06
   2     10    13.455    63.466    0.13E-03    0.47E-04    0.27E-06
   0     11    13.455    85.644    0.47E-04    0.16E-04    0.33E-06
   0     11    13.455    44.119    0.43E-04    0.15E-04    0.30E-06
  PAW_PBE C_h 06Feb2004                 :
 energy of atom  1       EATOM= -147.1560
 kinetic energy error for atom=    0.0286 (will be added to EATOM!!)
  PAW_PBE C_h 06Feb2004                 :
 energy of atom  2       EATOM= -147.1560
 kinetic energy error for atom=    0.0286 (will be added to EATOM!!)
  PAW_PBE H 15Jun2001                   :
 energy of atom  3       EATOM=  -12.4884
 kinetic energy error for atom=    0.0002 (will be added to EATOM!!)
  PAW_PBE N_h 06Feb2004                 :
 energy of atom  4       EATOM= -264.5486
 kinetic energy error for atom=    0.0847 (will be added to EATOM!!)
  PAW_PBE O_h 06Feb2004                 :
 energy of atom  5       EATOM= -432.3788
 kinetic energy error for atom=    0.1855 (will be added to EATOM!!)
  PAW_PBE Ru_pv 28Jan2005               :
 energy of atom  6       EATOM=-1873.4746
 kinetic energy error for atom=    0.0017 (will be added to EATOM!!)
 
 
 POSCAR: C C H N O Ru                            
  positions in direct lattice
  velocities in cartesian coordinates
 exchange correlation table for  LEXCH =        8
   RHO(1)=    0.500       N(1)  =     2000
   RHO(2)=  100.500       N(2)  =     4000
 


--------------------------------------------------------------------------------------------------------


 ion  position               nearest neighbor table
   1  0.305  0.392  0.484-  40 1.09  23 1.39  25 1.40
   2  0.438  0.566  0.328-  43 1.09   3 1.39   6 1.39
   3  0.456  0.524  0.381-  38 1.09  49 1.36   2 1.39
   4  0.474  0.615  0.450-  34 1.09  49 1.36   5 1.39
   5  0.456  0.660  0.399-  33 1.09   4 1.39   6 1.40
   6  0.438  0.635  0.337-  32 1.09   2 1.39   5 1.40
   7  0.523  0.330  0.675-  26 1.09   8 1.39  16 1.40
   8  0.497  0.372  0.626-  31 1.09  51 1.36   7 1.39
   9  0.602  0.419  0.606-  51 1.37  10 1.40  14 1.47
  10  0.631  0.378  0.654-  28 1.09  16 1.39   9 1.40
  11  0.740  0.529  0.535-  41 1.09  15 1.39  12 1.40
  12  0.701  0.566  0.490-  37 1.09  13 1.39  11 1.40
  13  0.633  0.554  0.487-  47 1.09  53 1.36  12 1.39
  14  0.640  0.469  0.567-  53 1.37  15 1.40   9 1.47
  15  0.708  0.480  0.573-  36 1.09  11 1.39  14 1.40
  16  0.591  0.332  0.689-  27 1.09  10 1.39   7 1.40
  17  0.362  0.489  0.564-  50 1.37  24 1.40  21 1.46
  18  0.408  0.622  0.691-  48 1.09  22 1.39  19 1.40
  19  0.476  0.626  0.677-  44 1.09  20 1.39  18 1.40
  20  0.503  0.586  0.627-  42 1.09  52 1.36  19 1.39
  21  0.398  0.538  0.604-  52 1.38  22 1.40  17 1.46
  22  0.369  0.578  0.654-  30 1.09  18 1.39  21 1.40
  23  0.373  0.406  0.482-  39 1.09  50 1.35   1 1.39
  24  0.293  0.477  0.568-  45 1.09  25 1.39  17 1.40
  25  0.264  0.428  0.528-  46 1.09  24 1.39   1 1.40
  26  0.490  0.295  0.701-   7 1.09
  27  0.613  0.300  0.727-  16 1.09
  28  0.684  0.381  0.665-  10 1.09
  29  0.542  0.362  0.461-  54 0.97
  30  0.316  0.573  0.664-  22 1.09
  31  0.444  0.371  0.614-   8 1.09
  32  0.424  0.668  0.296-   6 1.09
  33  0.456  0.713  0.410-   5 1.09
  34  0.488  0.634  0.499-   4 1.09
  35  0.569  0.418  0.415-  54 0.98
  36  0.738  0.450  0.608-  15 1.09
  37  0.723  0.605  0.459-  12 1.09
  38  0.456  0.470  0.375-   3 1.09
  39  0.406  0.379  0.449-  23 1.09
  40  0.284  0.353  0.452-   1 1.09
  41  0.793  0.537  0.539-  11 1.09
  42  0.556  0.588  0.614-  20 1.09
  43  0.424  0.543  0.280-   2 1.09
  44  0.509  0.660  0.704-  19 1.09
  45  0.263  0.506  0.603-  24 1.09
  46  0.211  0.418  0.531-  25 1.09
  47  0.601  0.582  0.453-  13 1.09
  48  0.385  0.653  0.729-  18 1.09
  49  0.474  0.548  0.441-   4 1.36   3 1.36  55 2.12
  50  0.402  0.453  0.521-  23 1.35  17 1.37  55 2.06
  51  0.535  0.416  0.592-   8 1.36   9 1.37  55 2.06
  52  0.465  0.543  0.590-  20 1.36  21 1.38  55 2.01
  53  0.601  0.507  0.524-  13 1.36  14 1.37  55 2.08
  54  0.531  0.406  0.442-  29 0.97  35 0.98  55 2.24
  55  0.501  0.481  0.519-  52 2.01  50 2.06  51 2.06  53 2.08  49 2.12  54 2.24
 
  LATTYP: Found a simple cubic cell.
 ALAT       =    20.0000000000
  
  Lattice vectors:
  
 A1 = (  20.0000000000,   0.0000000000,   0.0000000000)
 A2 = (   0.0000000000,  20.0000000000,   0.0000000000)
 A3 = (   0.0000000000,   0.0000000000,  20.0000000000)


Analysis of symmetry for initial positions (statically):
=====================================================================
 Subroutine PRICEL returns:
 Original cell was already a primitive cell.
 

 Routine SETGRP: Setting up the symmetry group for a 
 simple cubic supercell.


 Subroutine GETGRP returns: Found  1 space group operations
 (whereof  1 operations were pure point group operations)
 out of a pool of 48 trial point group operations.


The static configuration has the point symmetry C_1 .


Analysis of symmetry for dynamics (positions and initial velocities):
=====================================================================
 Subroutine PRICEL returns:
 Original cell was already a primitive cell.
 

 Routine SETGRP: Setting up the symmetry group for a 
 simple cubic supercell.


 Subroutine GETGRP returns: Found  1 space group operations
 (whereof  1 operations were pure point group operations)
 out of a pool of 48 trial point group operations.


The dynamic configuration has the point symmetry C_1 .


Analysis of constrained symmetry for selective dynamics:
=====================================================================
 Subroutine PRICEL returns:
 Original cell was already a primitive cell.
 

 Routine SETGRP: Setting up the symmetry group for a 
 simple cubic supercell.


 Subroutine GETGRP returns: Found  1 space group operations
 (whereof  1 operations were pure point group operations)
 out of a pool of 48 trial point group operations.


The constrained configuration has the point symmetry C_1 .


Analysis of magnetic symmetry:
=====================================================================
 Subroutine PRICEL returns:
 Original cell was already a primitive cell.
 

 Subroutine MAGSYM returns: Found  1 space group operations
 (whereof  1 operations were pure point group operations)
 out of a pool of  1 trial space group operations
 (whereof  1 operations were pure point group operations)
 and found also     1 'primitive' translations


The magnetic configuration has the point symmetry C_1 .
 
 
 KPOINTS: K-Points                                

Automatic generation of k-mesh.
Space group operators:
 irot       det(A)        alpha          n_x          n_y          n_z        tau_x        tau_y        tau_z
    1     1.000000     0.000000     1.000000     0.000000     0.000000     0.000000     0.000000     0.000000
 
 Subroutine IBZKPT returns following result:
 ===========================================
 
 Found      1 irreducible k-points:
 
 Following reciprocal coordinates:
            Coordinates               Weight
  0.000000  0.000000  0.000000      1.000000
 
 Following cartesian coordinates:
            Coordinates               Weight
  0.000000  0.000000  0.000000      1.000000
 


--------------------------------------------------------------------------------------------------------




 Dimension of arrays:
   k-points           NKPTS =      1   k-points in BZ     NKDIM =      1   number of bands    NBANDS=    128
   number of dos      NEDOS =    301   number of ions     NIONS =     55
   non local maximal  LDIM  =      6   non local SUM 2l+1 LMDIM =     18
   total plane-waves  NPLWV = ******
   max r-space proj   IRMAX =   8473   max aug-charges    IRDMAX= 268848
   dimension x,y,z NGX =   180 NGY =  180 NGZ =  180
   dimension x,y,z NGXF=   360 NGYF=  360 NGZF=  360
   support grid    NGXF=   720 NGYF=  720 NGZF=  720
   ions per type =               1  24  23   5   1   1
 NGX,Y,Z   is equivalent  to a cutoff of  14.96, 14.96, 14.96 a.u.
 NGXF,Y,Z  is equivalent  to a cutoff of  29.92, 29.92, 29.92 a.u.


 I would recommend the setting:
   dimension x,y,z NGX =   173 NGY =  173 NGZ =  173
 SYSTEM =  c2_oh2_ruthenium_mol                    
 POSCAR =  C C H N O Ru                            

 Startparameter for this run:
   NWRITE =      2    write-flag & timer
   PREC   = accura    normal or accurate (medium, high low for compatibility)
   ISTART =      0    job   : 0-new  1-cont  2-samecut
   ICHARG =      2    charge: 1-file 2-atom 10-const
   ISPIN  =      2    spin polarized calculation?
   LNONCOLLINEAR =      F non collinear calculations
   LSORBIT =      F    spin-orbit coupling
   INIWAV =      1    electr: 0-lowe 1-rand  2-diag
   LASPH  =      F    aspherical Exc in radial PAW
   METAGGA=      F    non-selfconsistent MetaGGA calc.

 Electronic Relaxation 1
   ENCUT  =  700.0 eV  51.45 Ry    7.17 a.u.  43.15 43.15 43.15*2*pi/ulx,y,z
   ENINI  =  700.0     initial cutoff
   ENAUG  =  946.8 eV  augmentation charge cutoff
   NELM   =     60;   NELMIN=  2; NELMDL= -5     # of ELM steps 
   EDIFF  = 0.1E-04   stopping-criterion for ELM
   LREAL  =      T    real-space projection
   NLSPLINE    = F    spline interpolate recip. space projectors
   LCOMPAT=      F    compatible to vasp.4.4
   GGA_COMPAT  = T    GGA compatible to vasp.4.4-vasp.4.6
   LMAXPAW     = -100 max onsite density
   LMAXMIX     =    2 max onsite mixed and CHGCAR
   VOSKOWN=      0    Vosko Wilk Nusair interpolation
   ROPT   =   -0.00025  -0.00025  -0.00025  -0.00025
   ROPT   =   -0.00025  -0.00025
 Ionic relaxation
   EDIFFG = -.1E-01   stopping-criterion for IOM
   NSW    =      0    number of steps for IOM
   NBLOCK =      1;   KBLOCK =      1    inner block; outer block 
   IBRION =     -1    ionic relax: 0-MD 1-quasi-New 2-CG
   NFREE  =      0    steps in history (QN), initial steepest desc. (CG)
   ISIF   =      2    stress and relaxation
   IWAVPR =     10    prediction:  0-non 1-charg 2-wave 3-comb
   ISYM   =      2    0-nonsym 1-usesym 2-fastsym
   LCORR  =      T    Harris-Foulkes like correction to forces

   POTIM  = 0.5000    time-step for ionic-motion
   TEIN   =    0.0    initial temperature
   TEBEG  =    0.0;   TEEND  =   0.0 temperature during run
   SMASS  =  -3.00    Nose mass-parameter (am)
   estimated Nose-frequenzy (Omega)   =  0.10E-29 period in steps =****** mass=  -0.914E-26a.u.
   SCALEE = 1.0000    scale energy and forces
   NPACO  =    256;   APACO  = 16.0  distance and # of slots for P.C.
   PSTRESS=    0.0 pullay stress

  Mass of Ions in am
   POMASS =  12.01 12.01  1.00 14.00 16.00101.07
  Ionic Valenz
   ZVAL   =   4.50  4.00  1.00  5.00  6.00 14.00
  Atomic Wigner-Seitz radii
   RWIGS  =  -1.00 -1.00 -1.00 -1.00 -1.00 -1.00
  virtual crystal weights 
   VCA    =   1.00  1.00  1.00  1.00  1.00  1.00
   NELECT =     166.0000    total number of electrons
   NUPDOWN=       0.0000    fix difference up-down

 DOS related values:
   EMIN   =  10.00;   EMAX   =-10.00  energy-range for DOS
   EFERMI =   0.00
   ISMEAR =     0;   SIGMA  =   0.01  broadening in eV -4-tet -1-fermi 0-gaus

 Electronic relaxation 2 (details)
   IALGO  =     38    algorithm
   LDIAG  =      T    sub-space diagonalisation (order eigenvalues)
   LSUBROT=      F    optimize rotation matrix (better conditioning)
   TURBO    =      0    0=normal 1=particle mesh
   IRESTART =      0    0=no restart 2=restart with 2 vectors
   NREBOOT  =      0    no. of reboots
   NMIN     =      0    reboot dimension
   EREF     =   0.00    reference energy to select bands
   IMIX   =      4    mixing-type and parameters
     AMIX     =   0.40;   BMIX     =  2.00
     AMIX_MAG =   1.60;   BMIX_MAG =  2.00
     AMIN     =   0.10
     WC   =   100.;   INIMIX=   1;  MIXPRE=   1;  MAXMIX= -45

 Intra band minimization:
   WEIMIN = 0.0000     energy-eigenvalue tresh-hold
   EBREAK =  0.20E-07  absolut break condition
   DEPER  =   0.30     relativ break condition  

   TIME   =   0.05     timestep for ELM

  volume/ion in A,a.u.               =     145.45       981.58
  Fermi-wavevector in a.u.,A,eV,Ry     =   0.449864  0.850119  2.753510  0.202377
  Thomas-Fermi vector in A             =   1.430192
 
 Write flags
   LWAVE  =      T    write WAVECAR
   LCHARG =      T    write CHGCAR
   LVTOT  =      F    write LOCPOT, total local potential
   LVHAR  =      F    write LOCPOT, Hartree potential only
   LELF   =      F    write electronic localiz. function (ELF)
   LORBIT =      0    0 simple, 1 ext, 2 COOP (PROOUT)


 Dipole corrections
   LMONO  =      F    monopole corrections only (constant potential shift)
   LDIPOL =      F    correct potential (dipole corrections)
   IDIPOL =      0    1-x, 2-y, 3-z, 4-all directions 
   EPSILON=  1.0000000 bulk dielectric constant

 Core level calculations are selected ICORELEVEL =  2
  CLNT =           1       CLN =     1
  CLL  =           0       CLZ = 0.500
 Exchange correlation treatment:
   GGA     =    --    GGA type
   LEXCH   =     8    internal setting for exchange type
   VOSKOWN=      0    Vosko Wilk Nusair interpolation
   LHFCALC =     F    Hartree Fock is set to
   LHFONE  =     F    Hartree Fock one center treatment
   AEXX    =    0.0000 exact exchange contribution

 Linear response parameters
   LEPSILON=     F    determine dielectric tensor
   LRPA    =     F    only Hartree local field effects (RPA)
   LNABLA  =     F    use nabla operator in PAW spheres
   LVEL    =     F    velocity operator in full k-point grid
   LINTERFAST=   F  fast interpolation
   KINTER  =     0    interpolate to denser k-point grid
   CSHIFT  =0.1000    complex shift for real part using Kramers Kronig
   OMEGAMAX=  -1.0    maximum frequency
   DEG_THRESHOLD= 0.2000000E-02 threshold for treating states as degnerate
   RTIME   =    0.100 relaxation time in fs

 Orbital magnetization related:
   ORBITALMAG=     F  switch on orbital magnetization
   LCHIMAG   =     F  perturbation theory with respect to B field
   DQ        =  0.001000  dq finite difference perturbation B field



--------------------------------------------------------------------------------------------------------


 Static calculation
 charge density and potential will be updated during run
 spin polarized calculation
 Variant of blocked Davidson
 Davidson routine will perform the subspace rotation
 perform sub-space diagonalisation
    after iterative eigenvector-optimisation
 modified Broyden-mixing scheme, WC =      100.0
 initial mixing is a Kerker type mixing with AMIX =  0.4000 and BMIX =      2.0000
 Hartree-type preconditioning will be used
 using additional bands           45
 real space projection scheme for non local part
 use partial core corrections
 calculate Harris-corrections to forces 
   (improved forces if not selfconsistent)
 use gradient corrections 
 use of overlap-Matrix (Vanderbilt PP)
 Gauss-broadening in eV      SIGMA  =   0.01


--------------------------------------------------------------------------------------------------------


  energy-cutoff  :      700.00
  volume of cell :     8000.00
      direct lattice vectors                 reciprocal lattice vectors
    20.000000000  0.000000000  0.000000000     0.050000000  0.000000000  0.000000000
     0.000000000 20.000000000  0.000000000     0.000000000  0.050000000  0.000000000
     0.000000000  0.000000000 20.000000000     0.000000000  0.000000000  0.050000000

  length of vectors
    20.000000000 20.000000000 20.000000000     0.050000000  0.050000000  0.050000000


 
 k-points in units of 2pi/SCALE and weight: K-Points                                
   0.00000000  0.00000000  0.00000000       1.000
 
 k-points in reciprocal lattice and weights: K-Points                                
   0.00000000  0.00000000  0.00000000       1.000
 
 position of ions in fractional coordinates (direct lattice) 
   0.30486503  0.39173492  0.48443166
   0.43793752  0.56561110  0.32757008
   0.45581208  0.52423376  0.38051465
   0.47372925  0.61530131  0.44986522
   0.45595175  0.65963312  0.39935201
   0.43785737  0.63472201  0.33675972
   0.52307882  0.32955005  0.67474498
   0.49710163  0.37190466  0.62618823
   0.60227374  0.41933300  0.60593616
   0.63096398  0.37761922  0.65422416
   0.73964927  0.52855915  0.53463181
   0.70082162  0.56612858  0.49044049
   0.63257913  0.55363620  0.48652424
   0.63952130  0.46927713  0.56732841
   0.70843899  0.47974495  0.57314689
   0.59134754  0.33224398  0.68903016
   0.36211554  0.48866484  0.56417415
   0.40790931  0.62211625  0.69058213
   0.47619960  0.62606623  0.67660612
   0.50295190  0.58590820  0.62668073
   0.39825425  0.53800137  0.60426081
   0.36904589  0.57756069  0.65398228
   0.37289802  0.40579857  0.48223443
   0.29334713  0.47671938  0.56830116
   0.26422003  0.42785518  0.52821594
   0.48989745  0.29510618  0.70074864
   0.61334240  0.29968355  0.72673159
   0.68424189  0.38076917  0.66478776
   0.54225374  0.36233861  0.46129841
   0.31579090  0.57306911  0.66420366
   0.44416348  0.37118871  0.61364770
   0.42392665  0.66833230  0.29622671
   0.45642762  0.71313270  0.40950260
   0.48809132  0.63358802  0.49907234
   0.56912778  0.41808713  0.41480476
   0.73767440  0.44963919  0.60776512
   0.72277620  0.60481012  0.45904817
   0.45570253  0.47012894  0.37468790
   0.40614333  0.37888556  0.44852541
   0.28443799  0.35306162  0.45202062
   0.79326502  0.53703787  0.53892527
   0.55589708  0.58769132  0.61440612
   0.42412006  0.54328620  0.27986105
   0.50894741  0.65984570  0.70400156
   0.26265982  0.50568523  0.60265428
   0.21072272  0.41813760  0.53105039
   0.60090654  0.58197914  0.45254259
   0.38544357  0.65296704  0.72941133
   0.47424490  0.54794204  0.44140236
   0.40180479  0.45306079  0.52108436
   0.53520702  0.41608490  0.59173240
   0.46544808  0.54254992  0.59041194
   0.60138410  0.50650621  0.52397638
   0.53073984  0.40562607  0.44215451
   0.50088568  0.48087016  0.51934246
 
 position of ions in cartesian coordinates  (Angst):
   6.09730063  7.83469839  9.68863321
   8.75875044 11.31222209  6.55140167
   9.11624161 10.48467523  7.61029296
   9.47458509 12.30602619  8.99730442
   9.11903505 13.19266234  7.98704025
   8.75714739 12.69444028  6.73519441
  10.46157638  6.59100110 13.49489953
   9.94203263  7.43809325 12.52376455
  12.04547477  8.38665999 12.11872314
  12.61927957  7.55238445 13.08448329
  14.79298537 10.57118301 10.69263621
  14.01643234 11.32257164  9.80880974
  12.65158254 11.07272405  9.73048485
  12.79042597  9.38554253 11.34656829
  14.16877978  9.59489901 11.46293786
  11.82695089  6.64487969 13.78060313
   7.24231077  9.77329687 11.28348299
   8.15818611 12.44232505 13.81164268
   9.52399198 12.52132464 13.53212240
  10.05903801 11.71816400 12.53361469
   7.96508499 10.76002740 12.08521614
   7.38091777 11.55121387 13.07964553
   7.45796037  8.11597149  9.64468853
   5.86694270  9.53438759 11.36602327
   5.28440067  8.55710369 10.56431882
   9.79794892  5.90212351 14.01497288
  12.26684793  5.99367109 14.53463185
  13.68483783  7.61538334 13.29575520
  10.84507475  7.24677213  9.22596819
   6.31581791 11.46138226 13.28407311
   8.88326966  7.42377422 12.27295397
   8.47853309 13.36664601  5.92453423
   9.12855243 14.26265408  8.19005201
   9.76182647 12.67176037  9.98144677
  11.38255564  8.36174255  8.29609511
  14.75348806  8.99278384 12.15530242
  14.45552391 12.09620238  9.18096343
   9.11405064  9.40257887  7.49375804
   8.12286663  7.57771114  8.97050829
   5.68875982  7.06123239  9.04041232
  15.86530045 10.74075733 10.77850539
  11.11794158 11.75382641 12.28812234
   8.48240128 10.86572407  5.59722093
  10.17894811 13.19691406 14.08003122
   5.25319634 10.11370460 12.05308551
   4.21445446  8.36275200 10.62100772
  12.01813087 11.63958272  9.05085175
   7.70887141 13.05934086 14.58822659
   9.48489793 10.95884088  8.82804729
   8.03609572  9.06121573 10.42168714
  10.70414049  8.32169803 11.83464804
   9.30896151 10.85099836 11.80823871
  12.02768196 10.13012430 10.47952760
  10.61479684  8.11252146  8.84309019
  10.01771355  9.61740316 10.38684921
 


--------------------------------------------------------------------------------------------------------


 k-point  1 :   0.0000 0.0000 0.0000  plane waves:  336427

 maximum and minimum number of plane-waves per node :    336427   336427

 maximum number of plane-waves:    336427
 maximum index in each direction: 
   IXMAX=   43   IYMAX=   43   IZMAX=   43
   IXMIN=  -43   IYMIN=  -43   IZMIN=  -43

 NGX is ok and might be reduce to 174
 NGY is ok and might be reduce to 174
 NGZ is ok and might be reduce to 174

 serial   3D FFT for wavefunctions
 parallel 3D FFT for charge:
    minimum data exchange during FFTs selected (reduces bandwidth)


 total amount of memory used by VASP on root node   877132. kBytes
========================================================================

   base      :      30000. kBytes
   nonlr-proj:      19361. kBytes
   fftplans  :     269516. kBytes
   grid      :     534988. kBytes
   one-center:       1710. kBytes
   wavefun   :      21557. kBytes
 
     INWAV:  cpu time    0.00: real time    0.00
 Broyden mixing: mesh for mixing (old mesh)
   NGX = 87   NGY = 87   NGZ = 87
  (NGX  =360   NGY  =360   NGZ  =360)
  gives a total of 658503 points

 initial charge density was supplied:
 charge density of overlapping atoms calculated
 number of electron     168.5000000 magnetization       0.0000000
 keeping initial charge density in first step


--------------------------------------------------------------------------------------------------------


 Maximum index for non-local projection operator         8166
 Maximum index for augmentation-charges         3214 (set IRDMAX)


--------------------------------------------------------------------------------------------------------


 First call to EWALD:  gamma=   0.089
 Maximum number of real-space cells 3x 3x 3
 Maximum number of reciprocal cells 3x 3x 3

 FEWALD executed in parallel
    FEWALD:  cpu time    0.00: real time    0.00


----------------------------------------- Iteration    1(   1)  ---------------------------------------


    POTLOK:  cpu time    4.73: real time    4.76
    SETDIJ:  cpu time    2.80: real time    2.80
     EDDAV:  cpu time   14.74: real time   15.67
       DOS:  cpu time    0.07: real time    0.07
    --------------------------------------------
      LOOP:  cpu time   22.35: real time   23.31

 eigenvalue-minimisations  :   768
 total energy-change (2. order) : 0.9093272E+03  (-0.5881099E+04)
 number of electron     168.5000000 magnetization       0.0000000
 augmentation part      168.5000000 magnetization       0.0000000

 Free energy of the ion-electron system (eV)
  ---------------------------------------------------
  alpha Z        PSCENC =        12.91687988
  Ewald energy   TEWEN  =     23273.35909505
  -Hartree energ DENC   =    -28875.66191487
  -exchange      EXHF   =         0.00000000
  -V(xc)+E(xc)   XCENC  =       400.93279216
  PAW double counting   =      5890.45591622    -5710.10246236
  entropy T*S    EENTRO =        -0.00000784
  eigenvalues    EBANDS =     -1675.97297592
  atomic energy  EATOM  =      7593.39991119
  ---------------------------------------------------
  free energy    TOTEN  =       909.32723352 eV

  energy without entropy =      909.32724136  energy(sigma->0) =      909.32723744


--------------------------------------------------------------------------------------------------------




----------------------------------------- Iteration    1(   2)  ---------------------------------------


     EDDAV:  cpu time   19.33: real time   20.35
       DOS:  cpu time    0.10: real time    0.10
    --------------------------------------------
      LOOP:  cpu time   19.43: real time   20.45

 eigenvalue-minimisations  :  1024
 total energy-change (2. order) :-0.9766750E+03  (-0.9702391E+03)
 number of electron     168.5000000 magnetization       0.0000000
 augmentation part      168.5000000 magnetization       0.0000000

 Free energy of the ion-electron system (eV)
  ---------------------------------------------------
  alpha Z        PSCENC =        12.91687988
  Ewald energy   TEWEN  =     23273.35909505
  -Hartree energ DENC   =    -28875.66191487
  -exchange      EXHF   =         0.00000000
  -V(xc)+E(xc)   XCENC  =       400.93279216
  PAW double counting   =      5890.45591622    -5710.10246236
  entropy T*S    EENTRO =        -0.00000000
  eigenvalues    EBANDS =     -2652.64797927
  atomic energy  EATOM  =      7593.39991119
  ---------------------------------------------------
  free energy    TOTEN  =       -67.34776199 eV

  energy without entropy =      -67.34776199  energy(sigma->0) =      -67.34776199


--------------------------------------------------------------------------------------------------------




----------------------------------------- Iteration    1(   3)  ---------------------------------------


     EDDAV:  cpu time   14.96: real time   15.77
       DOS:  cpu time    0.08: real time    0.08
    --------------------------------------------
      LOOP:  cpu time   15.04: real time   15.84

 eigenvalue-minimisations  :   768
 total energy-change (2. order) :-0.3231864E+03  (-0.3227534E+03)
 number of electron     168.5000000 magnetization       0.0000000
 augmentation part      168.5000000 magnetization       0.0000000

 Free energy of the ion-electron system (eV)
  ---------------------------------------------------
  alpha Z        PSCENC =        12.91687988
  Ewald energy   TEWEN  =     23273.35909505
  -Hartree energ DENC   =    -28875.66191487
  -exchange      EXHF   =         0.00000000
  -V(xc)+E(xc)   XCENC  =       400.93279216
  PAW double counting   =      5890.45591622    -5710.10246236
  entropy T*S    EENTRO =        -0.00000000
  eigenvalues    EBANDS =     -2975.83440906
  atomic energy  EATOM  =      7593.39991119
  ---------------------------------------------------
  free energy    TOTEN  =      -390.53419179 eV

  energy without entropy =     -390.53419179  energy(sigma->0) =     -390.53419179


--------------------------------------------------------------------------------------------------------




----------------------------------------- Iteration    1(   4)  ---------------------------------------


     EDDAV:  cpu time   13.77: real time   14.59
       DOS:  cpu time    0.10: real time    0.10
    --------------------------------------------
      LOOP:  cpu time   13.87: real time   14.70

 eigenvalue-minimisations  :   704
 total energy-change (2. order) :-0.2170937E+02  (-0.2168208E+02)
 number of electron     168.5000000 magnetization       0.0000000
 augmentation part      168.5000000 magnetization       0.0000000

 Free energy of the ion-electron system (eV)
  ---------------------------------------------------
  alpha Z        PSCENC =        12.91687988
  Ewald energy   TEWEN  =     23273.35909505
  -Hartree energ DENC   =    -28875.66191487
  -exchange      EXHF   =         0.00000000
  -V(xc)+E(xc)   XCENC  =       400.93279216
  PAW double counting   =      5890.45591622    -5710.10246236
  entropy T*S    EENTRO =        -0.00000000
  eigenvalues    EBANDS =     -2997.54377595
  atomic energy  EATOM  =      7593.39991119
  ---------------------------------------------------
  free energy    TOTEN  =      -412.24355867 eV

  energy without entropy =     -412.24355867  energy(sigma->0) =     -412.24355867


--------------------------------------------------------------------------------------------------------




----------------------------------------- Iteration    1(   5)  ---------------------------------------


     EDDAV:  cpu time   15.80: real time   16.92
       DOS:  cpu time    0.09: real time    0.09
    CHARGE:  cpu time    5.16: real time    5.17
    MIXING:  cpu time    0.15: real time    0.16
    --------------------------------------------
      LOOP:  cpu time   21.20: real time   22.34

 eigenvalue-minimisations  :   832
 total energy-change (2. order) :-0.2680708E+00  (-0.2678612E+00)
 number of electron     166.0000000 magnetization      -0.0000000
 augmentation part        3.5911887 magnetization      -0.0009422

 Broyden mixing:
  rms(total) = 0.57172E+01    rms(broyden)= 0.57165E+01
  rms(prec ) = 0.60895E+01
  weight for this iteration     100.00

 Free energy of the ion-electron system (eV)
  ---------------------------------------------------
  alpha Z        PSCENC =        12.91687988
  Ewald energy   TEWEN  =     23273.35909505
  -Hartree energ DENC   =    -28875.66191487
  -exchange      EXHF   =         0.00000000
  -V(xc)+E(xc)   XCENC  =       400.93279216
  PAW double counting   =      5890.45591622    -5710.10246236
  entropy T*S    EENTRO =        -0.00000000
  eigenvalues    EBANDS =     -2997.81184674
  atomic energy  EATOM  =      7593.39991119
  ---------------------------------------------------
  free energy    TOTEN  =      -412.51162946 eV

  energy without entropy =     -412.51162946  energy(sigma->0) =     -412.51162946


--------------------------------------------------------------------------------------------------------




----------------------------------------- Iteration    1(   6)  ---------------------------------------


    POTLOK:  cpu time    4.66: real time    4.70
    SETDIJ:  cpu time    2.81: real time    2.81
     EDDAV:  cpu time   11.80: real time   12.61
       DOS:  cpu time    0.04: real time    0.04
    CHARGE:  cpu time    5.29: real time    5.31
    MIXING:  cpu time    0.07: real time    0.07
    --------------------------------------------
      LOOP:  cpu time   24.68: real time   25.54

 eigenvalue-minimisations  :   576
 total energy-change (2. order) : 0.1910267E+02  (-0.3459684E+02)
 number of electron     166.0000000 magnetization      -0.0000000
 augmentation part        6.4631129 magnetization      -0.0009903

 Broyden mixing:
  rms(total) = 0.38428E+01    rms(broyden)= 0.38426E+01
  rms(prec ) = 0.40094E+01
  weight for this iteration     100.00

 eigenvalues of (default mixing * dielectric matrix)
  average eigenvalue GAMMA=   1.0743
  1.0743

 Free energy of the ion-electron system (eV)
  ---------------------------------------------------
  alpha Z        PSCENC =        12.91687988
  Ewald energy   TEWEN  =     23273.35909505
  -Hartree energ DENC   =    -28881.57122900
  -exchange      EXHF   =         0.00000000
  -V(xc)+E(xc)   XCENC  =       406.47595181
  PAW double counting   =     20888.23329118   -20720.64875684
  entropy T*S    EENTRO =        -0.00000000
  eigenvalues    EBANDS =     -2965.57409926
  atomic energy  EATOM  =      7593.39991119
  ---------------------------------------------------
  free energy    TOTEN  =      -393.40895599 eV

  energy without entropy =     -393.40895599  energy(sigma->0) =     -393.40895599


--------------------------------------------------------------------------------------------------------




----------------------------------------- Iteration    1(   7)  ---------------------------------------


    POTLOK:  cpu time    4.59: real time    4.60
    SETDIJ:  cpu time    2.81: real time    2.83
     EDDAV:  cpu time   13.85: real time   14.74
       DOS:  cpu time    0.07: real time    0.07
    CHARGE:  cpu time    4.80: real time    4.94
    MIXING:  cpu time    0.20: real time    0.20
    --------------------------------------------
      LOOP:  cpu time   26.32: real time   27.39

 eigenvalue-minimisations  :   704
 total energy-change (2. order) : 0.1045945E+02  (-0.2323142E+01)
 number of electron     166.0000000 magnetization      -0.0000000
 augmentation part        5.5536000 magnetization       0.0005205

 Broyden mixing:
  rms(total) = 0.23517E+01    rms(broyden)= 0.23517E+01
  rms(prec ) = 0.24216E+01
  weight for this iteration     100.00

 eigenvalues of (default mixing * dielectric matrix)
  average eigenvalue GAMMA=   1.4569
  0.7584  2.1555

 Free energy of the ion-electron system (eV)
  ---------------------------------------------------
  alpha Z        PSCENC =        12.91687988
  Ewald energy   TEWEN  =     23273.35909505
  -Hartree energ DENC   =    -29013.47464408
  -exchange      EXHF   =         0.00000000
  -V(xc)+E(xc)   XCENC  =       411.97441245
  PAW double counting   =     36657.58078186   -36485.20874887
  entropy T*S    EENTRO =        -0.00000000
  eigenvalues    EBANDS =     -2833.49718960
  atomic energy  EATOM  =      7593.39991119
  ---------------------------------------------------
  free energy    TOTEN  =      -382.94950213 eV

  energy without entropy =     -382.94950213  energy(sigma->0) =     -382.94950213


--------------------------------------------------------------------------------------------------------




----------------------------------------- Iteration    1(   8)  ---------------------------------------


    POTLOK:  cpu time    4.59: real time    4.61
    SETDIJ:  cpu time    2.88: real time    2.88
     EDDAV:  cpu time   15.66: real time   16.50
       DOS:  cpu time    0.08: real time    0.08
    CHARGE:  cpu time    5.12: real time    5.14
    MIXING:  cpu time    0.13: real time    0.13
    --------------------------------------------
      LOOP:  cpu time   28.46: real time   29.34

 eigenvalue-minimisations  :   768
 total energy-change (2. order) : 0.4125774E+01  (-0.1721592E+01)
 number of electron     166.0000000 magnetization      -0.0000000
 augmentation part        4.8405029 magnetization       0.0001261

 Broyden mixing:
  rms(total) = 0.93822E+00    rms(broyden)= 0.93818E+00
  rms(prec ) = 0.10256E+01
  weight for this iteration     100.00

 eigenvalues of (default mixing * dielectric matrix)
  average eigenvalue GAMMA=   1.4552
  2.6816  0.8419  0.8419

 Free energy of the ion-electron system (eV)
  ---------------------------------------------------
  alpha Z        PSCENC =        12.91687988
  Ewald energy   TEWEN  =     23273.35909505
  -Hartree energ DENC   =    -29168.35844926
  -exchange      EXHF   =         0.00000000
  -V(xc)+E(xc)   XCENC  =       420.04244852
  PAW double counting   =     70461.69390550   -70286.20405301
  entropy T*S    EENTRO =        -0.00000000
  eigenvalues    EBANDS =     -2685.67346611
  atomic energy  EATOM  =      7593.39991119
  ---------------------------------------------------
  free energy    TOTEN  =      -378.82372823 eV

  energy without entropy =     -378.82372823  energy(sigma->0) =     -378.82372823


--------------------------------------------------------------------------------------------------------




----------------------------------------- Iteration    1(   9)  ---------------------------------------


    POTLOK:  cpu time    4.60: real time    4.61
    SETDIJ:  cpu time    2.81: real time    2.81
     EDDAV:  cpu time   15.40: real time   16.26
       DOS:  cpu time    0.08: real time    0.08
    CHARGE:  cpu time    5.13: real time    5.13
    MIXING:  cpu time    0.12: real time    0.12
    --------------------------------------------
      LOOP:  cpu time   28.14: real time   29.02

 eigenvalue-minimisations  :   768
 total energy-change (2. order) : 0.1123299E+01  (-0.5978643E+00)
 number of electron     166.0000000 magnetization      -0.0000000
 augmentation part        5.2611044 magnetization      -0.0000043

 Broyden mixing:
  rms(total) = 0.35576E+00    rms(broyden)= 0.35573E+00
  rms(prec ) = 0.39373E+00
  weight for this iteration     100.00

 eigenvalues of (default mixing * dielectric matrix)
  average eigenvalue GAMMA=   1.3195
  2.5255  1.1803  0.7861  0.7861

 Free energy of the ion-electron system (eV)
  ---------------------------------------------------
  alpha Z        PSCENC =        12.91687988
  Ewald energy   TEWEN  =     23273.35909505
  -Hartree energ DENC   =    -29182.77221447
  -exchange      EXHF   =         0.00000000
  -V(xc)+E(xc)   XCENC  =       422.46543278
  PAW double counting   =     82454.25584977   -82280.79304508
  entropy T*S    EENTRO =        -0.00000000
  eigenvalues    EBANDS =     -2670.53233879
  atomic energy  EATOM  =      7593.39991119
  ---------------------------------------------------
  free energy    TOTEN  =      -377.70042967 eV

  energy without entropy =     -377.70042967  energy(sigma->0) =     -377.70042967


--------------------------------------------------------------------------------------------------------




----------------------------------------- Iteration    1(  10)  ---------------------------------------


    POTLOK:  cpu time    4.57: real time    4.73
    SETDIJ:  cpu time    2.81: real time    2.81
     EDDAV:  cpu time   15.58: real time   16.49
       DOS:  cpu time    0.07: real time    0.07
    CHARGE:  cpu time    5.25: real time    5.25
    MIXING:  cpu time    0.10: real time    0.10
    --------------------------------------------
      LOOP:  cpu time   28.38: real time   29.46

 eigenvalue-minimisations  :   768
 total energy-change (2. order) : 0.3414608E-01  (-0.3237305E-01)
 number of electron     166.0000000 magnetization      -0.0000000
 augmentation part        5.3415256 magnetization      -0.0000193

 Broyden mixing:
  rms(total) = 0.25621E+00    rms(broyden)= 0.25621E+00
  rms(prec ) = 0.30051E+00
  weight for this iteration     100.00

 eigenvalues of (default mixing * dielectric matrix)
  average eigenvalue GAMMA=   1.2831
  2.4683  1.5641  0.8641  0.7595  0.7595

 Free energy of the ion-electron system (eV)
  ---------------------------------------------------
  alpha Z        PSCENC =        12.91687988
  Ewald energy   TEWEN  =     23273.35909505
  -Hartree energ DENC   =    -29171.56805091
  -exchange      EXHF   =         0.00000000
  -V(xc)+E(xc)   XCENC  =       422.48362227
  PAW double counting   =     81295.33163001   -81122.28636300
  entropy T*S    EENTRO =        -0.00000000
  eigenvalues    EBANDS =     -2681.30300809
  atomic energy  EATOM  =      7593.39991119
  ---------------------------------------------------
  free energy    TOTEN  =      -377.66628359 eV

  energy without entropy =     -377.66628359  energy(sigma->0) =     -377.66628359


--------------------------------------------------------------------------------------------------------




----------------------------------------- Iteration    1(  11)  ---------------------------------------


    POTLOK:  cpu time    4.58: real time    4.62
    SETDIJ:  cpu time    2.81: real time    2.82
     EDDAV:  cpu time   15.39: real time   16.26
       DOS:  cpu time    0.08: real time    0.08
    CHARGE:  cpu time    5.16: real time    5.16
    MIXING:  cpu time    0.13: real time    0.13
    --------------------------------------------
      LOOP:  cpu time   28.16: real time   29.07

 eigenvalue-minimisations  :   768
 total energy-change (2. order) : 0.1189358E+00  (-0.1139971E-01)
 number of electron     166.0000000 magnetization      -0.0000000
 augmentation part        5.2980423 magnetization       0.0000075

 Broyden mixing:
  rms(total) = 0.12966E+00    rms(broyden)= 0.12966E+00
  rms(prec ) = 0.17156E+00
  weight for this iteration     100.00

 eigenvalues of (default mixing * dielectric matrix)
  average eigenvalue GAMMA=   1.4172
  2.5342  2.5342  1.0499  0.8537  0.8537  0.6776

 Free energy of the ion-electron system (eV)
  ---------------------------------------------------
  alpha Z        PSCENC =        12.91687988
  Ewald energy   TEWEN  =     23273.35909505
  -Hartree energ DENC   =    -29170.68278532
  -exchange      EXHF   =         0.00000000
  -V(xc)+E(xc)   XCENC  =       423.09414944
  PAW double counting   =     81803.34262419   -81630.12153393
  entropy T*S    EENTRO =        -0.00000000
  eigenvalues    EBANDS =     -2682.85568834
  atomic energy  EATOM  =      7593.39991119
  ---------------------------------------------------
  free energy    TOTEN  =      -377.54734783 eV

  energy without entropy =     -377.54734783  energy(sigma->0) =     -377.54734783


--------------------------------------------------------------------------------------------------------




----------------------------------------- Iteration    1(  12)  ---------------------------------------


    POTLOK:  cpu time    4.59: real time    4.76
    SETDIJ:  cpu time    2.80: real time    2.80
     EDDAV:  cpu time   15.56: real time   16.40
       DOS:  cpu time    0.07: real time    0.07
    CHARGE:  cpu time    5.14: real time    5.18
    MIXING:  cpu time    0.10: real time    0.10
    --------------------------------------------
      LOOP:  cpu time   28.28: real time   29.33

 eigenvalue-minimisations  :   768
 total energy-change (2. order) : 0.8149532E-01  (-0.1082476E-01)
 number of electron     166.0000000 magnetization      -0.0000000
 augmentation part        5.2535842 magnetization      -0.0000396

 Broyden mixing:
  rms(total) = 0.69943E-01    rms(broyden)= 0.69939E-01
  rms(prec ) = 0.10284E+00
  weight for this iteration     100.00

 eigenvalues of (default mixing * dielectric matrix)
  average eigenvalue GAMMA=   1.4231
  2.8118  2.8118  1.0087  1.0087  0.8434  0.8434  0.6341

 Free energy of the ion-electron system (eV)
  ---------------------------------------------------
  alpha Z        PSCENC =        12.91687988
  Ewald energy   TEWEN  =     23273.35909505
  -Hartree energ DENC   =    -29167.01681785
  -exchange      EXHF   =         0.00000000
  -V(xc)+E(xc)   XCENC  =       423.73786699
  PAW double counting   =     81773.25955249   -81599.91290871
  entropy T*S    EENTRO =        -0.00000000
  eigenvalues    EBANDS =     -2687.20943156
  atomic energy  EATOM  =      7593.39991119
  ---------------------------------------------------
  free energy    TOTEN  =      -377.46585251 eV

  energy without entropy =     -377.46585251  energy(sigma->0) =     -377.46585251


--------------------------------------------------------------------------------------------------------




----------------------------------------- Iteration    1(  13)  ---------------------------------------


    POTLOK:  cpu time    4.60: real time    4.62
    SETDIJ:  cpu time    2.79: real time    2.80
     EDDAV:  cpu time   15.43: real time   16.27
       DOS:  cpu time    0.07: real time    0.07
    CHARGE:  cpu time    5.09: real time    5.09
    MIXING:  cpu time    0.22: real time    0.22
    --------------------------------------------
      LOOP:  cpu time   28.21: real time   29.07

 eigenvalue-minimisations  :   768
 total energy-change (2. order) : 0.2099399E-01  (-0.1465039E-02)
 number of electron     166.0000000 magnetization      -0.0000000
 augmentation part        5.2532486 magnetization       0.0000068

 Broyden mixing:
  rms(total) = 0.54414E-01    rms(broyden)= 0.54414E-01
  rms(prec ) = 0.80425E-01
  weight for this iteration     100.00

 eigenvalues of (default mixing * dielectric matrix)
  average eigenvalue GAMMA=   1.5419
  3.0590  3.0590  1.6649  1.1078  1.1078  0.8545  0.8545  0.6278

 Free energy of the ion-electron system (eV)
  ---------------------------------------------------
  alpha Z        PSCENC =        12.91687988
  Ewald energy   TEWEN  =     23273.35909505
  -Hartree energ DENC   =    -29161.41416125
  -exchange      EXHF   =         0.00000000
  -V(xc)+E(xc)   XCENC  =       423.98412620
  PAW double counting   =     81340.84288481   -81167.55249795
  entropy T*S    EENTRO =        -0.00000000
  eigenvalues    EBANDS =     -2692.98109647
  atomic energy  EATOM  =      7593.39991119
  ---------------------------------------------------
  free energy    TOTEN  =      -377.44485852 eV

  energy without entropy =     -377.44485852  energy(sigma->0) =     -377.44485852


--------------------------------------------------------------------------------------------------------




----------------------------------------- Iteration    1(  14)  ---------------------------------------


    POTLOK:  cpu time    4.73: real time    4.76
    SETDIJ:  cpu time    2.82: real time    2.82
     EDDAV:  cpu time   15.53: real time   16.37
       DOS:  cpu time    0.08: real time    0.08
    CHARGE:  cpu time    5.27: real time    5.37
    MIXING:  cpu time    0.10: real time    0.10
    --------------------------------------------
      LOOP:  cpu time   28.52: real time   29.50

 eigenvalue-minimisations  :   768
 total energy-change (2. order) : 0.1394265E-01  (-0.2948664E-02)
 number of electron     166.0000000 magnetization      -0.0000000
 augmentation part        5.2636530 magnetization      -0.0000111

 Broyden mixing:
  rms(total) = 0.28016E-01    rms(broyden)= 0.28014E-01
  rms(prec ) = 0.43598E-01
  weight for this iteration     100.00

 eigenvalues of (default mixing * dielectric matrix)
  average eigenvalue GAMMA=   1.6165
  4.4380  2.5343  2.1672  1.2587  0.8518  0.8518  0.9103  0.9103  0.6264

 Free energy of the ion-electron system (eV)
  ---------------------------------------------------
  alpha Z        PSCENC =        12.91687988
  Ewald energy   TEWEN  =     23273.35909505
  -Hartree energ DENC   =    -29149.34730431
  -exchange      EXHF   =         0.00000000
  -V(xc)+E(xc)   XCENC  =       424.32180457
  PAW double counting   =     80987.82121087   -80814.65684271
  entropy T*S    EENTRO =        -0.00000000
  eigenvalues    EBANDS =     -2705.24567043
  atomic energy  EATOM  =      7593.39991119
  ---------------------------------------------------
  free energy    TOTEN  =      -377.43091587 eV

  energy without entropy =     -377.43091587  energy(sigma->0) =     -377.43091587


--------------------------------------------------------------------------------------------------------




----------------------------------------- Iteration    1(  15)  ---------------------------------------


    POTLOK:  cpu time    4.70: real time    4.73
    SETDIJ:  cpu time    2.80: real time    2.80
     EDDAV:  cpu time   15.41: real time   16.25
       DOS:  cpu time    0.08: real time    0.08
    CHARGE:  cpu time    5.19: real time    5.20
    MIXING:  cpu time    0.16: real time    0.16
    --------------------------------------------
      LOOP:  cpu time   28.33: real time   29.21

 eigenvalue-minimisations  :   768
 total energy-change (2. order) :-0.9648761E-03  (-0.6070557E-03)
 number of electron     166.0000000 magnetization      -0.0000000
 augmentation part        5.2596196 magnetization       0.0000074

 Broyden mixing:
  rms(total) = 0.25628E-01    rms(broyden)= 0.25627E-01
  rms(prec ) = 0.34379E-01
  weight for this iteration     100.00

 eigenvalues of (default mixing * dielectric matrix)
  average eigenvalue GAMMA=   1.6050
  4.7328  2.4928  2.0354  1.2965  1.2042  1.2042  0.8545  0.8545  0.7487  0.6266

 Free energy of the ion-electron system (eV)
  ---------------------------------------------------
  alpha Z        PSCENC =        12.91687988
  Ewald energy   TEWEN  =     23273.35909505
  -Hartree energ DENC   =    -29142.25043700
  -exchange      EXHF   =         0.00000000
  -V(xc)+E(xc)   XCENC  =       424.44045859
  PAW double counting   =     80981.51962231   -80808.34451926
  entropy T*S    EENTRO =        -0.00000000
  eigenvalues    EBANDS =     -2712.47289152
  atomic energy  EATOM  =      7593.39991119
  ---------------------------------------------------
  free energy    TOTEN  =      -377.43188075 eV

  energy without entropy =     -377.43188075  energy(sigma->0) =     -377.43188075


--------------------------------------------------------------------------------------------------------




----------------------------------------- Iteration    1(  16)  ---------------------------------------


    POTLOK:  cpu time    4.61: real time    4.63
    SETDIJ:  cpu time    2.79: real time    2.81
     EDDAV:  cpu time   15.55: real time   16.38
       DOS:  cpu time    0.08: real time    0.08
    CHARGE:  cpu time    5.05: real time    5.23
    MIXING:  cpu time    0.21: real time    0.21
    --------------------------------------------
      LOOP:  cpu time   28.29: real time   29.35

 eigenvalue-minimisations  :   768
 total energy-change (2. order) :-0.9723326E-02  (-0.1714243E-03)
 number of electron     166.0000000 magnetization      -0.0000000
 augmentation part        5.2587180 magnetization      -0.0000121

 Broyden mixing:
  rms(total) = 0.13025E-01    rms(broyden)= 0.13025E-01
  rms(prec ) = 0.20295E-01
  weight for this iteration     100.00

 eigenvalues of (default mixing * dielectric matrix)
  average eigenvalue GAMMA=   1.7173
  5.6130  2.5492  2.5492  1.8195  1.4246  0.8578  0.8578  0.9835  0.8911  0.6266
  0.7181

 Free energy of the ion-electron system (eV)
  ---------------------------------------------------
  alpha Z        PSCENC =        12.91687988
  Ewald energy   TEWEN  =     23273.35909505
  -Hartree energ DENC   =    -29134.64864792
  -exchange      EXHF   =         0.00000000
  -V(xc)+E(xc)   XCENC  =       424.40900169
  PAW double counting   =     81087.59181479   -80914.38505690
  entropy T*S    EENTRO =        -0.00000000
  eigenvalues    EBANDS =     -2720.08460186
  atomic energy  EATOM  =      7593.39991119
  ---------------------------------------------------
  free energy    TOTEN  =      -377.44160407 eV

  energy without entropy =     -377.44160407  energy(sigma->0) =     -377.44160407


--------------------------------------------------------------------------------------------------------




----------------------------------------- Iteration    1(  17)  ---------------------------------------


    POTLOK:  cpu time    4.62: real time    4.64
    SETDIJ:  cpu time    2.81: real time    2.82
     EDDAV:  cpu time   15.39: real time   16.26
       DOS:  cpu time    0.07: real time    0.07
    CHARGE:  cpu time    5.23: real time    5.24
    MIXING:  cpu time    0.14: real time    0.14
    --------------------------------------------
      LOOP:  cpu time   28.26: real time   29.17

 eigenvalue-minimisations  :   768
 total energy-change (2. order) :-0.6210854E-02  (-0.1642440E-03)
 number of electron     166.0000000 magnetization      -0.0000000
 augmentation part        5.2618093 magnetization       0.0000059

 Broyden mixing:
  rms(total) = 0.89887E-02    rms(broyden)= 0.89885E-02
  rms(prec ) = 0.12511E-01
  weight for this iteration     100.00

 eigenvalues of (default mixing * dielectric matrix)
  average eigenvalue GAMMA=   1.7547
  6.4297  2.7931  2.7931  1.4998  1.4998  0.8566  0.8566  1.0525  0.9815  0.9815
  0.6261  0.6866

 Free energy of the ion-electron system (eV)
  ---------------------------------------------------
  alpha Z        PSCENC =        12.91687988
  Ewald energy   TEWEN  =     23273.35909505
  -Hartree energ DENC   =    -29127.11952378
  -exchange      EXHF   =         0.00000000
  -V(xc)+E(xc)   XCENC  =       424.37894810
  PAW double counting   =     81148.70877203   -80975.49895197
  entropy T*S    EENTRO =        -0.00000000
  eigenvalues    EBANDS =     -2727.59294543
  atomic energy  EATOM  =      7593.39991119
  ---------------------------------------------------
  free energy    TOTEN  =      -377.44781493 eV

  energy without entropy =     -377.44781493  energy(sigma->0) =     -377.44781493


--------------------------------------------------------------------------------------------------------




----------------------------------------- Iteration    1(  18)  ---------------------------------------


    POTLOK:  cpu time    4.63: real time    4.65
    SETDIJ:  cpu time    2.80: real time    2.81
     EDDAV:  cpu time   15.48: real time   16.34
       DOS:  cpu time    0.07: real time    0.07
    CHARGE:  cpu time    5.06: real time    5.23
    MIXING:  cpu time    0.11: real time    0.17
    --------------------------------------------
      LOOP:  cpu time   28.16: real time   29.27

 eigenvalue-minimisations  :   768
 total energy-change (2. order) :-0.4148820E-02  (-0.5149860E-04)
 number of electron     166.0000000 magnetization      -0.0000000
 augmentation part        5.2626955 magnetization      -0.0000087

 Broyden mixing:
  rms(total) = 0.71991E-02    rms(broyden)= 0.71990E-02
  rms(prec ) = 0.92883E-02
  weight for this iteration     100.00

 eigenvalues of (default mixing * dielectric matrix)
[...]
 12.559   0.000  21.153   0.000   0.003   0.000   0.002   0.000   0.003   0.000   0.005   0.000   0.004   0.000   0.005   0.000
 21.153   0.000  35.627   0.000   0.005   0.000   0.004   0.000   0.005   0.000   0.009   0.000   0.007   0.000   0.009   0.000
  0.003   0.000   0.005   0.000  -3.539   0.000  -0.001   0.000  -0.000   0.000  -6.360   0.000  -0.001   0.000  -0.000   0.000
  0.002   0.000   0.004   0.000  -0.001   0.000  -3.539   0.000   0.000   0.000  -0.001   0.000  -6.360   0.000   0.000   0.000
  0.003   0.000   0.005   0.000  -0.000   0.000   0.000   0.000  -3.540   0.000  -0.000   0.000   0.000   0.000  -6.362   0.000
  0.005   0.000   0.009   0.000  -6.360   0.000  -0.001   0.000  -0.000   0.000 -11.409   0.000  -0.002   0.000  -0.000   0.000
  0.004   0.000   0.007   0.000  -0.001   0.000  -6.360   0.000   0.000   0.000  -0.002   0.000 -11.408   0.000   0.001   0.000
  0.005   0.000   0.009   0.000  -0.000   0.000   0.000   0.000  -6.362   0.000  -0.000   0.000   0.001   0.000 -11.411   0.000
 pseudopotential strength for first ion, spin component:           2
 12.559   0.000  21.153   0.000   0.003   0.000   0.002   0.000   0.003   0.000   0.005   0.000   0.004   0.000   0.005   0.000
 21.153   0.000  35.627   0.000   0.005   0.000   0.004   0.000   0.005   0.000   0.009   0.000   0.007   0.000   0.009   0.000
  0.003   0.000   0.005   0.000  -3.539   0.000  -0.001   0.000  -0.000   0.000  -6.360   0.000  -0.001   0.000  -0.000   0.000
  0.002   0.000   0.004   0.000  -0.001   0.000  -3.539   0.000   0.000   0.000  -0.001   0.000  -6.360   0.000   0.000   0.000
  0.003   0.000   0.005   0.000  -0.000   0.000   0.000   0.000  -3.540   0.000  -0.000   0.000   0.000   0.000  -6.362   0.000
  0.005   0.000   0.009   0.000  -6.360   0.000  -0.001   0.000  -0.000   0.000 -11.409   0.000  -0.002   0.000  -0.000   0.000
  0.004   0.000   0.007   0.000  -0.001   0.000  -6.360   0.000   0.000   0.000  -0.002   0.000 -11.408   0.000   0.001   0.000
  0.005   0.000   0.009   0.000  -0.000   0.000   0.000   0.000  -6.362   0.000  -0.000   0.000   0.001   0.000 -11.411   0.000
 total augmentation occupancy for first ion, spin component:           1
  1.090  -0.112   0.389   0.303   0.296  -0.144  -0.114  -0.106
 -0.112   0.386  -0.173  -0.136  -0.133   0.050   0.041   0.034
  0.389  -0.173   1.812   0.996   0.150  -0.158  -0.277  -0.031
  0.303  -0.136   0.996   1.781  -0.398  -0.277  -0.158   0.135
  0.296  -0.133   0.150  -0.398   3.107  -0.031   0.135  -0.582
 -0.144   0.050  -0.158  -0.277  -0.031   0.086   0.020  -0.009
 -0.114   0.041  -0.277  -0.158   0.135   0.020   0.094  -0.031
 -0.106   0.034  -0.031   0.135  -0.582  -0.009  -0.031   0.167
 total augmentation occupancy for first ion, spin component:           2
  0.000  -0.000   0.000   0.000   0.000  -0.000   0.000  -0.000
 -0.000   0.000  -0.000  -0.000  -0.000   0.000   0.000  -0.000
  0.000  -0.000   0.000  -0.000   0.000  -0.000   0.000  -0.000
  0.000  -0.000  -0.000   0.000   0.000   0.000  -0.000  -0.000
  0.000  -0.000   0.000   0.000   0.000  -0.000  -0.000  -0.000
 -0.000   0.000  -0.000   0.000  -0.000  -0.000   0.000   0.000
  0.000   0.000   0.000  -0.000  -0.000   0.000  -0.000   0.000
 -0.000  -0.000  -0.000  -0.000  -0.000   0.000   0.000   0.000


------------------------ aborting loop because EDIFF is reached ----------------------------------------


    CHARGE:  cpu time    5.19: real time    5.19
    FORLOC:  cpu time    0.67: real time    0.76
    FORNL :  cpu time   19.47: real time   19.51
    STRESS:  cpu time   61.38: real time   61.47
    FORCOR:  cpu time    4.22: real time    4.24
    FORHAR:  cpu time    0.99: real time    1.00
    MIXING:  cpu time    0.20: real time    0.20
    OFIELD:  cpu time    0.00: real time    0.00

  FORCE on cell =-STRESS in cart. coord.  units (eV):
  Direction    XX          YY          ZZ          XY          YZ          ZX
  --------------------------------------------------------------------------------------
  Alpha Z    12.91688    12.91688    12.91688
  Ewald   11205.02385  5582.99614  6485.32466   420.49000 -1531.52020   914.88024
  Hartree 12548.87312  7802.73957  8765.24869   122.40603 -1422.66580   733.80420
  E(xc)    -688.90835  -691.48480  -692.14064     1.41792    -0.05077     0.63363
  Local  -26123.70022-15790.71652-17676.14566  -520.49293  2953.25950 -1649.64615
  n-local   -28.61022   -28.56009   -32.02646     3.37534    -1.01989    -1.05878
  augment    82.69130    84.29594    83.25971     1.41541     0.50519     0.57195
  Kinetic  2976.30051  3013.29471  3039.28140   -29.44247    -0.09977     0.46704
  Fock        0.00000     0.00000     0.00000     0.00000     0.00000     0.00000
  -------------------------------------------------------------------------------------
  Total     -15.41312   -14.51817   -14.28141    -0.83070    -1.59174    -0.34787
  in kB      -3.08682    -2.90758    -2.86017    -0.16637    -0.31878    -0.06967
  external pressure =       -2.95 kB  Pullay stress =        0.00 kB


 VOLUME and BASIS-vectors are now :
 -----------------------------------------------------------------------------
  energy-cutoff  :      700.00
  volume of cell :     8000.00
      direct lattice vectors                 reciprocal lattice vectors
    20.000000000  0.000000000  0.000000000     0.050000000  0.000000000  0.000000000
     0.000000000 20.000000000  0.000000000     0.000000000  0.050000000  0.000000000
     0.000000000  0.000000000 20.000000000     0.000000000  0.000000000  0.050000000

  length of vectors
    20.000000000 20.000000000 20.000000000     0.050000000  0.050000000  0.050000000


 FORCES acting on ions
    electron-ion (+dipol)            ewald-force                    non-local-force                 convergence-correction
 -----------------------------------------------------------------------------------------------
   0.271E+03 0.251E+03 0.161E+03   -.273E+03 -.252E+03 -.162E+03   0.210E+01 0.193E+01 0.137E+01   -.409E-04 -.768E-04 -.674E-04
   0.874E+02 -.959E+01 0.333E+03   -.880E+02 0.988E+01 -.335E+03   0.595E+00 -.327E+00 0.181E+01   0.339E-05 -.138E-04 -.768E-04
   0.671E+02 0.799E+02 0.318E+03   -.691E+02 -.818E+02 -.325E+03   0.201E+01 0.186E+01 0.631E+01   0.203E-04 -.467E-04 0.380E-04
   0.326E+01 -.318E+03 0.297E+02   -.348E+01 0.325E+03 -.292E+02   0.227E+00 -.693E+01 -.509E+00   0.271E-04 -.463E-04 0.315E-04
   0.359E+02 -.326E+03 0.105E+03   -.362E+02 0.327E+03 -.105E+03   0.313E+00 -.180E+01 0.614E+00   0.193E-04 0.557E-04 -.293E-04
   0.800E+02 -.208E+03 0.263E+03   -.806E+02 0.209E+03 -.265E+03   0.508E+00 -.118E+01 0.141E+01   0.138E-05 0.640E-04 -.931E-04
   0.743E+02 0.267E+03 -.219E+03   -.747E+02 -.269E+03 0.220E+03   0.346E+00 0.148E+01 -.145E+01   0.124E-05 -.596E-04 0.377E-04
   0.150E+03 0.255E+03 -.165E+03   -.154E+03 -.260E+03 0.168E+03   0.364E+01 0.476E+01 -.395E+01   0.306E-05 0.259E-04 -.290E-04
   -.226E+03 0.123E+03 -.137E+03   0.232E+03 -.124E+03 0.140E+03   -.533E+01 0.115E+01 -.281E+01   -.100E-04 0.279E-04 -.452E-04
   -.258E+03 0.143E+03 -.181E+03   0.259E+03 -.144E+03 0.183E+03   -.125E+01 0.128E+01 -.169E+01   0.541E-04 -.166E-04 -.554E-05
   -.338E+03 -.697E+02 -.929E+00   0.340E+03 0.703E+02 0.851E+00   -.192E+01 -.528E+00 0.575E-01   0.666E-04 0.240E-04 -.577E-05
   -.258E+03 -.192E+03 0.137E+03   0.259E+03 0.194E+03 -.138E+03   -.155E+01 -.121E+01 0.745E+00   0.453E-04 0.435E-04 -.337E-04
   -.181E+03 -.214E+03 0.187E+03   0.185E+03 0.219E+03 -.191E+03   -.344E+01 -.512E+01 0.405E+01   -.317E-04 -.174E-04 -.188E-07
   -.265E+03 0.635E+02 -.922E+02   0.270E+03 -.654E+02 0.952E+02   -.491E+01 0.193E+01 -.294E+01   -.500E-04 -.342E-05 -.211E-04
   -.315E+03 0.611E+02 -.112E+03   0.317E+03 -.609E+02 0.113E+03   -.235E+01 -.166E+00 -.398E+00   0.145E-04 -.255E-04 0.166E-04
   -.122E+03 0.232E+03 -.239E+03   0.123E+03 -.233E+03 0.240E+03   -.653E+00 0.135E+01 -.154E+01   0.432E-04 -.725E-04 0.499E-04
   0.270E+03 -.311E+02 -.105E+03   -.274E+03 0.337E+02 0.108E+03   0.431E+01 -.240E+01 -.320E+01   0.356E-04 0.150E-04 -.672E-05
   0.127E+03 -.218E+03 -.261E+03   -.128E+03 0.219E+03 0.263E+03   0.615E+00 -.148E+01 -.176E+01   -.359E-04 0.734E-04 0.728E-04
   -.745E+02 -.256E+03 -.246E+03   0.749E+02 0.257E+03 0.248E+03   -.481E+00 -.149E+01 -.153E+01   0.125E-05 0.591E-04 0.439E-04
   -.158E+03 -.237E+03 -.197E+03   0.162E+03 0.242E+03 0.201E+03   -.437E+01 -.476E+01 -.408E+01   0.197E-04 -.239E-04 -.279E-04
   0.232E+03 -.963E+02 -.158E+03   -.237E+03 0.978E+02 0.161E+03   0.502E+01 -.156E+01 -.313E+01   0.263E-04 0.144E-04 -.154E-05
   0.265E+03 -.125E+03 -.201E+03   -.266E+03 0.126E+03 0.203E+03   0.103E+01 -.144E+01 -.191E+01   -.350E-04 0.203E-04 0.173E-04
   0.137E+03 0.262E+03 0.193E+03   -.136E+03 -.266E+03 -.197E+03   -.232E+01 0.391E+01 0.437E+01   0.247E-04 -.114E-04 -.373E-04
   0.323E+03 -.375E+02 -.119E+03   -.325E+03 0.382E+02 0.120E+03   0.209E+01 -.789E+00 -.121E+01   -.401E-04 0.849E-05 0.443E-04
   0.343E+03 0.903E+02 -.328E+01   -.347E+03 -.884E+02 0.596E+01   0.484E+01 -.219E+01 -.312E+01   -.685E-04 -.490E-04 0.902E-05
   0.451E+02 0.805E+02 -.637E+02   -.487E+02 -.843E+02 0.665E+02   0.362E+01 0.381E+01 -.289E+01   -.167E-06 -.232E-04 0.171E-04
   -.418E+02 0.694E+02 -.756E+02   0.442E+02 -.731E+02 0.798E+02   -.243E+01 0.361E+01 -.418E+01   0.127E-04 -.273E-04 0.218E-04
   -.993E+02 0.278E+02 -.485E+02   0.105E+03 -.275E+02 0.498E+02   -.582E+01 -.258E+00 -.124E+01   0.146E-04 -.104E-04 0.445E-05
   -.409E+02 0.149E+03 0.159E+02   0.428E+02 -.157E+03 -.126E+02   -.180E+01 0.756E+01 -.335E+01   -.638E-05 0.279E-04 0.390E-05
   0.101E+03 -.226E+02 -.519E+02   -.107E+03 0.222E+02 0.531E+02   0.581E+01 0.395E+00 -.122E+01   -.113E-04 0.100E-04 0.132E-04
   0.797E+02 0.678E+02 -.319E+02   -.855E+02 -.680E+02 0.306E+02   0.583E+01 0.142E+00 0.131E+01   0.394E-06 0.446E-05 -.541E-05
   0.266E+02 -.664E+02 0.814E+02   -.281E+02 0.701E+02 -.859E+02   0.154E+01 -.372E+01 0.448E+01   -.404E-05 0.255E-04 -.359E-04
   0.586E+01 -.110E+03 0.886E+01   -.582E+01 0.116E+03 -.778E+01   -.369E-01 -.588E+01 -.107E+01   0.240E-05 0.300E-04 -.105E-04
   -.143E+02 -.101E+03 -.344E+02   0.158E+02 0.103E+03 0.398E+02   -.155E+01 -.210E+01 -.538E+01   0.441E-05 -.880E-05 0.842E-05
   -.101E+03 0.258E+02 0.116E+03   0.108E+03 -.235E+02 -.121E+03   -.652E+01 -.229E+01 0.484E+01   -.152E-04 0.913E-05 0.195E-04
   -.915E+02 0.385E+02 -.535E+02   0.948E+02 -.417E+02 0.573E+02   -.330E+01 0.324E+01 -.376E+01   0.115E-04 -.664E-05 0.444E-05
   -.660E+02 -.714E+02 0.547E+02   0.685E+02 0.756E+02 -.581E+02   -.245E+01 -.426E+01 0.345E+01   0.176E-04 0.131E-04 -.960E-05
   0.172E+02 0.709E+02 0.886E+02   -.172E+02 -.768E+02 -.893E+02   0.259E-01 0.594E+01 0.734E+00   0.408E-05 -.786E-05 0.659E-05
   0.270E+01 0.905E+02 0.777E+02   0.885E+00 -.936E+02 -.816E+02   -.375E+01 0.300E+01 0.379E+01   0.638E-06 0.494E-05 -.665E-06
   0.628E+02 0.820E+02 0.612E+02   -.648E+02 -.856E+02 -.643E+02   0.239E+01 0.447E+01 0.374E+01   -.788E-05 -.431E-05 -.241E-05
   -.105E+03 -.197E+02 -.452E+01   0.111E+03 0.206E+02 0.499E+01   -.592E+01 -.949E+00 -.467E+00   0.293E-04 0.101E-04 -.208E-05
   -.837E+02 -.640E+02 -.382E+02   0.896E+02 0.643E+02 0.369E+02   -.590E+01 -.246E+00 0.131E+01   -.176E-05 -.868E-05 -.667E-05
   0.285E+02 0.211E+02 0.104E+03   -.300E+02 -.235E+02 -.110E+03   0.152E+01 0.241E+01 0.526E+01   -.264E-05 -.116E-05 -.330E-04
   -.454E+02 -.784E+02 -.699E+02   0.489E+02 0.821E+02 0.729E+02   -.359E+01 -.375E+01 -.305E+01   -.322E-05 0.194E-04 0.172E-04
   0.947E+02 -.335E+02 -.547E+02   -.982E+02 0.366E+02 0.584E+02   0.345E+01 -.316E+01 -.376E+01   -.130E-04 0.157E-05 0.126E-04
   0.107E+03 0.248E+02 -.310E+01   -.113E+03 -.260E+02 0.334E+01   0.601E+01 0.104E+01 -.372E+00   -.224E-04 -.125E-04 0.491E-05
   -.229E+02 -.759E+02 0.738E+02   0.195E+02 0.791E+02 -.776E+02   0.343E+01 -.318E+01 0.379E+01   -.209E-06 -.241E-05 -.110E-05
   0.432E+02 -.659E+02 -.805E+02   -.457E+02 0.693E+02 0.848E+02   0.248E+01 -.343E+01 -.431E+01   -.114E-04 0.238E-04 0.263E-04
   0.299E+02 -.140E+03 0.222E+03   -.248E+02 0.128E+03 -.207E+03   -.506E+01 0.122E+02 -.149E+02   0.495E-04 -.109E-03 0.104E-03
   0.230E+03 0.161E+03 0.602E+02   -.207E+03 -.157E+03 -.615E+02   -.224E+02 -.456E+01 0.939E+00   0.982E-04 0.255E-04 -.285E-04
   -.418E+02 0.233E+03 -.160E+03   0.334E+02 -.221E+03 0.146E+03   0.841E+01 -.116E+02 0.132E+02   -.563E-05 0.101E-03 -.110E-03
   0.384E+02 -.197E+03 -.198E+03   -.301E+02 0.187E+03 0.185E+03   -.815E+01 0.947E+01 0.127E+02   0.509E-04 -.506E-04 -.516E-04
   -.252E+03 -.955E+02 0.676E+02   0.233E+03 0.932E+02 -.693E+02   0.199E+02 0.233E+01 0.169E+01   -.117E-03 -.572E-04 -.122E-05
   -.124E+03 0.404E+03 0.422E+03   0.850E+02 -.387E+03 -.424E+03   0.391E+02 -.174E+02 0.231E+01   -.243E-04 0.129E-03 0.110E-03
   -.782E+02 0.128E+03 0.228E+03   0.773E+02 -.125E+03 -.224E+03   0.683E+00 -.315E+01 -.395E+01   0.151E-03 -.512E-04 -.635E-04
 -----------------------------------------------------------------------------------------------
   -.246E+02 0.240E+02 0.496E+01   0.995E-13 -.256E-12 -.199E-12   0.246E+02 -.240E+02 -.496E+01   0.296E-03 0.232E-04 -.107E-03
 
 
 POSITION                                       TOTAL-FORCE (eV/Angst)
 -----------------------------------------------------------------------------------
      6.09730      7.83470      9.68863         0.313999      0.136039      0.058189
      8.75875     11.31222      6.55140        -0.014541     -0.032113     -0.007399
      9.11624     10.48468      7.61029        -0.008362      0.012542      0.001295
      9.47459     12.30603      8.99730         0.008227      0.000812      0.014997
      9.11904     13.19266      7.98704        -0.001052      0.012349      0.006576
      8.75715     12.69444      6.73519         0.006326      0.007085      0.008886
     10.46158      6.59100     13.49490        -0.017385     -0.009199      0.007639
      9.94203      7.43809     12.52376         0.037489      0.015401     -0.021031
     12.04547      8.38666     12.11872        -0.014962     -0.000538      0.003841
     12.61928      7.55238     13.08448        -0.000900      0.011973     -0.008054
     14.79299     10.57118     10.69264        -0.021414      0.015016     -0.020461
     14.01643     11.32257      9.80881         0.027038     -0.008961      0.013625
     12.65158     11.07272      9.73048        -0.068631     -0.000634     -0.017068
     12.79043      9.38554     11.34657        -0.027442     -0.001398     -0.005307
     14.16878      9.59490     11.46294        -0.013289     -0.005727      0.002613
     11.82695      6.64488     13.78060        -0.016583      0.000888     -0.005960
      7.24231      9.77330     11.28348        -0.097797      0.215181      0.232633
      8.15819     12.44233     13.81164        -0.014447      0.025788      0.031820
      9.52399     12.52132     13.53212        -0.068590      0.002215      0.021254
     10.05904     11.71816     12.53361         0.009668     -0.081572     -0.083087
      7.96508     10.76003     12.08522        -0.025868     -0.001001     -0.004022
      7.38092     11.55121     13.07965        -0.071654     -0.025030     -0.008609
      7.45796      8.11597      9.64469        -0.971296     -0.060953      0.145667
      5.86694      9.53439     11.36602         0.022856     -0.102903     -0.107650
      5.28440      8.55710     10.56432         0.499979     -0.341424     -0.441428
      9.79795      5.90212     14.01497         0.001373     -0.005566      0.005932
     12.26685      5.99367     14.53463        -0.000786     -0.004582      0.004341
     13.68484      7.61538     13.29576        -0.002569     -0.000427      0.002567
     10.84507      7.24677      9.22597         0.051290     -0.018054     -0.001486
      6.31582     11.46138     13.28407        -0.010564      0.027094      0.024570
      8.88327      7.42377     12.27295         0.002395     -0.021339      0.024588
      8.47853     13.36665      5.92453         0.000001      0.005050     -0.003196
      9.12855     14.26265      8.19005         0.005566      0.001649     -0.000953
      9.76183     12.67176      9.98145         0.009418      0.013694     -0.009529
     11.38256      8.36174      8.29610         0.015209     -0.003634     -0.033597
     14.75349      8.99278     12.15530         0.001960      0.000918      0.000989
     14.45552     12.09620      9.18096        -0.001115      0.002265     -0.004789
      9.11405      9.40258      7.49376         0.019576     -0.007765     -0.025665
      8.12287      7.57771      8.97051        -0.167210     -0.073258     -0.034998
      5.68876      7.06123      9.04041         0.416574      0.830157      0.702636
     15.86530     10.74076     10.77851         0.000599      0.003315      0.001494
     11.11794     11.75383     12.28812         0.000471     -0.001902     -0.000813
      8.48240     10.86572      5.59722        -0.001520      0.002710     -0.002023
     10.17895     13.19691     14.08003         0.001575      0.008117      0.005373
      5.25320     10.11370     12.05309        -0.047171     -0.058344     -0.047951
      4.21445      8.36275     10.62101         0.046145     -0.124864     -0.129870
     12.01813     11.63958      9.05085         0.011059      0.003000     -0.003924
      7.70887     13.05934     14.58823        -0.005739      0.002333      0.003340
      9.48490     10.95884      8.82805         0.005907      0.055584     -0.066389
      8.03610      9.06122     10.42169         0.082353     -0.277098     -0.294252
     10.70414      8.32170     11.83465         0.077665     -0.070509      0.064351
      9.30896     10.85100     11.80824         0.122021     -0.079900     -0.083471
     12.02768     10.13012     10.47953         0.081725      0.034444      0.017081
     10.61480      8.11252      8.84309        -0.047029      0.022942      0.060656
     10.01771      9.61740     10.38685        -0.140543     -0.049871      0.006028
 -----------------------------------------------------------------------------------
    total drift:                                0.006677     -0.003357      0.002851


--------------------------------------------------------------------------------------------------------



  FREE ENERGIE OF THE ION-ELECTRON SYSTEM (eV)
  ---------------------------------------------------
  free  energy   TOTEN  =      -377.46369821 eV

  energy  without entropy=     -377.46369821  energy(sigma->0) =     -377.46369821
 


--------------------------------------------------------------------------------------------------------


    POTLOK:  cpu time    7.48: real time    7.51


--------------------------------------------------------------------------------------------------------


 writing wavefunctions
     LOOP+:  cpu time 1011.77: real time 1045.82
    4ORBIT:  cpu time    0.00: real time    0.00

 total amount of memory used by VASP on root node   877132. kBytes
========================================================================

   base      :      30000. kBytes
   nonlr-proj:      19361. kBytes
   fftplans  :     269516. kBytes
   grid      :     534988. kBytes
   one-center:       1710. kBytes
   wavefun   :      21557. kBytes
 
  
  
 General timing and accounting informations for this job:
 ========================================================
  
                  Total CPU time used (sec):     1266.937
                            User time (sec):     1118.205
                          System time (sec):      148.732
                         Elapsed time (sec):     1304.355
  
                   Maximum memory used (kb):     1476088.
                   Average memory used (kb):           0.
  
                          Minor page faults:      6946867
                          Major page faults:            0
                 Voluntary context switches:       258705
