<?xml version="1.0" encoding="ISO-8859-1"?>
<modeling>
 <generator>
  <i name="program" type="string">vasp </i>
  <i name="version" type="string">5.3.5  </i>
  <i name="subversion" type="string">31Mar14 (build Apr 08 2014 12:00:03) complex                          parallel </i>
  <i name="platform" type="string">NSC-NSCPATCH-BUILD02 </i>
  <i name="date" type="string">2017 03 15 </i>
  <i name="time" type="string">19:01:23 </i>
 </generator>
 <incar>
  <i type="string" name="SYSTEM"> c2_oh2_ruthenium_mol</i>
  <i type="int" name="ISTART">     0</i>
  <i type="string" name="PREC">accurate</i>
  <i type="int" name="IALGO">    38</i>
  <i type="logical" name="ADDGRID"> T  </i>
  <i type="int" name="ISPIN">     2</i>
  <i name="BMIX">      2.00000000</i>
  <i type="int" name="ICHARG">     2</i>
  <i name="EDIFF">      0.00001000</i>
  <i name="EDIFFG">     -0.01000000</i>
  <i name="ENCUT">    700.00000000</i>
  <i name="POTIM">      0.50000000</i>
  <i name="NUPDOWN">      0.00000000</i>
  <i name="NELECT">    166.00000000</i>
  <i type="string" name="LREAL"> Auto</i>
  <i name="TIME">      0.05000000</i>
  <i type="int" name="ISMEAR">     0</i>
  <i name="SIGMA">      0.01000000</i>
  <i type="int" name="ICORELEVEL">     2</i>
  <i type="int" name="CLNT">     1</i>
  <i type="int" name="CLN">     1</i>
  <i type="int" name="INCAR     ">     0</i>
  <i name="CLZ">      0.50000000</i>
 </incar>
 <kpoints>
  <generation param="Monkhorst-Pack">
   <v type="int" name="divisions">       1        1        1 </v>
   <v name="usershift">      0.00000000       0.00000000       0.00000000 </v>
   <v name="genvec1">      1.00000000       0.00000000       0.00000000 </v>
   <v name="genvec2">      0.00000000       1.00000000       0.00000000 </v>
   <v name="genvec3">      0.00000000       0.00000000       1.00000000 </v>
   <v name="shift">      0.00000000       0.00000000       0.00000000 </v>
  </generation>
  <varray name="kpointlist" >
   <v>       0.00000000       0.00000000       0.00000000 </v>
  </varray>
  <varray name="weights" >
   <v>       1.00000000 </v>
  </varray>
 </kpoints>
 <parameters>
  <separator name="general" >
   <i type="string" name="SYSTEM">c2_oh2_ruthenium_mol</i>
   <i type="logical" name="LCOMPAT"> F  </i>
  </separator>
  <separator name="electronic" >
   <i type="string" name="PREC">accura</i>
   <i name="ENMAX">    700.00000000</i>
   <i name="ENAUG">    946.76800000</i>
   <i name="EDIFF">      0.00001000</i>
   <i type="int" name="IALGO">    38</i>
   <i type="int" name="IWAVPR">    10</i>
   <i type="int" name="NBANDS">   128</i>
   <i name="NELECT">    166.00000000</i>
   <i type="int" name="TURBO">     0</i>
   <i type="int" name="IRESTART">     0</i>
   <i type="int" name="NREBOOT">     0</i>
   <i type="int" name="NMIN">     0</i>
   <i name="EREF">      0.00000000</i>
   <separator name="electronic smearing" >
    <i type="int" name="ISMEAR">     0</i>
    <i name="SIGMA">      0.01000000</i>
    <i name="KSPACING">      0.50000000</i>
    <i type="logical" name="KGAMMA"> T  </i>
   </separator>
   <separator name="electronic projectors" >
    <i type="logical" name="LREAL"> T  </i>
    <v name="ROPT">     -0.00025000     -0.00025000     -0.00025000     -0.00025000     -0.00025000     -0.00025000</v>
    <i type="int" name="LMAXPAW">  -100</i>
    <i type="int" name="LMAXMIX">     2</i>
    <i type="logical" name="NLSPLINE"> F  </i>
   </separator>
   <separator name="electronic startup" >
    <i type="int" name="ISTART">     0</i>
    <i type="int" name="ICHARG">     2</i>
    <i type="int" name="INIWAV">     1</i>
   </separator>
   <separator name="electronic spin" >
    <i type="int" name="ISPIN">     2</i>
    <i type="logical" name="LNONCOLLINEAR"> F  </i>
    <v name="MAGMOM">      0.00000000      0.00000000      0.00000000      0.00000000      0.00000000      0.00000000      0.00000000      0.00000000      0.00000000      0.00000000      0.00000000      0.00000000      0.00000000      0.00000000      0.00000000      0.00000000      0.00000000      0.00000000      0.00000000      0.00000000
      0.00000000      0.00000000      0.00000000      0.00000000      0.00000000      0.00000000      0.00000000      0.00000000      0.00000000      0.00000000      0.00000000      0.00000000      0.00000000      0.00000000      0.00000000      0.00000000      0.00000000      0.00000000      0.00000000      0.00000000
      0.00000000      0.00000000      0.00000000      0.00000000      0.00000000      0.00000000      0.00000000      0.00000000      0.00000000      0.00000000      0.00000000      0.00000000      0.00000000      0.00000000      0.00000000</v>
    <i name="NUPDOWN">      0.00000000</i>
    <i type="logical" name="LSORBIT"> F  </i>
    <v name="SAXIS">      0.00000000      0.00000000      1.00000000</v>
    <i type="logical" name="LSPIRAL"> F  </i>
    <v name="QSPIRAL">      0.00000000      0.00000000      0.00000000</v>
    <i type="logical" name="LZEROZ"> F  </i>
   </separator>
   <separator name="electronic exchange-correlation" >
    <i type="logical" name="LASPH"> F  </i>
    <i type="logical" name="LMETAGGA"> F  </i>
   </separator>
   <separator name="electronic convergence" >
    <i type="int" name="NELM">    60</i>
    <i type="int" name="NELMDL">    -5</i>
    <i type="int" name="NELMIN">     2</i>
    <i name="ENINI">    700.00000000</i>
    <separator name="electronic convergence detail" >
     <i type="logical" name="LDIAG"> T  </i>
     <i type="logical" name="LSUBROT"> F  </i>
     <i name="WEIMIN">      0.00000000</i>
     <i name="EBREAK">      0.00000002</i>
     <i name="DEPER">      0.30000000</i>
     <i type="int" name="NRMM">     4</i>
     <i name="TIME">      0.05000000</i>
    </separator>
   </separator>
   <separator name="electronic mixer" >
    <i name="AMIX">      0.40000000</i>
    <i name="BMIX">      2.00000000</i>
    <i name="AMIN">      0.10000000</i>
    <i name="AMIX_MAG">      1.60000000</i>
    <i name="BMIX_MAG">      2.00000000</i>
    <separator name="electronic mixer details" >
     <i type="int" name="IMIX">     4</i>
     <i type="int" name="MAXMIX">   -45</i>
     <i name="WC">    100.00000000</i>
     <i type="int" name="INIMIX">     1</i>
     <i type="int" name="MIXPRE">     1</i>
     <i type="int" name="MREMOVE">     5</i>
    </separator>
   </separator>
   <separator name="electronic dipolcorrection" >
    <i type="logical" name="LDIPOL"> F  </i>
    <i type="logical" name="LMONO"> F  </i>
    <i type="int" name="IDIPOL">     0</i>
    <i name="EPSILON">      1.00000000</i>
    <v name="DIPOL">   -100.00000000   -100.00000000   -100.00000000</v>
    <i name="EFIELD">      0.00000000</i>
   </separator>
  </separator>
  <separator name="grids" >
   <i type="int" name="NGX">   180</i>
   <i type="int" name="NGY">   180</i>
   <i type="int" name="NGZ">   180</i>
   <i type="int" name="NGXF">   360</i>
   <i type="int" name="NGYF">   360</i>
   <i type="int" name="NGZF">   360</i>
   <i type="logical" name="ADDGRID"> T  </i>
  </separator>
  <separator name="ionic" >
   <i type="int" name="NSW">     0</i>
   <i type="int" name="IBRION">    -1</i>
   <i type="int" name="ISIF">     2</i>
   <i name="PSTRESS">      0.00000000</i>
   <i name="EDIFFG">     -0.01000000</i>
   <i type="int" name="NFREE">     0</i>
   <i name="POTIM">      0.50000000</i>
   <i name="SMASS">     -3.00000000</i>
   <i name="SCALEE">      1.00000000</i>
  </separator>
  <separator name="ionic md" >
   <i name="TEBEG">      0.00010000</i>
   <i name="TEEND">      0.00010000</i>
   <i type="int" name="NBLOCK">     1</i>
   <i type="int" name="KBLOCK">     1</i>
   <i type="int" name="NPACO">   256</i>
   <i name="APACO">     16.00000000</i>
  </separator>
  <separator name="symmetry" >
   <i type="int" name="ISYM">     2</i>
   <i name="SYMPREC">      0.00001000</i>
  </separator>
  <separator name="dos" >
   <i type="logical" name="LORBIT"> F  </i>
   <v name="RWIGS">     -1.00000000     -1.00000000     -1.00000000     -1.00000000     -1.00000000     -1.00000000</v>
   <i type="int" name="NEDOS">   301</i>
   <i name="EMIN">     10.00000000</i>
   <i name="EMAX">    -10.00000000</i>
   <i name="EFERMI">      0.00000000</i>
  </separator>
  <separator name="writing" >
   <i type="int" name="NWRITE">     2</i>
   <i type="logical" name="LWAVE"> T  </i>
   <i type="logical" name="LCHARG"> T  </i>
   <i type="logical" name="LPARD"> F  </i>
   <i type="logical" name="LVTOT"> F  </i>
   <i type="logical" name="LVHAR"> F  </i>
   <i type="logical" name="LELF"> F  </i>
   <i type="logical" name="LOPTICS"> F  </i>
   <v name="STM">      0.00000000      0.00000000      0.00000000      0.00000000      0.00000000      0.00000000      0.00000000</v>
  </separator>
  <separator name="performance" >
   <i type="int" name="NPAR">    64</i>
   <i type="int" name="NSIM">     4</i>
   <i type="int" name="NBLK">    -1</i>
   <i type="logical" name="LPLANE"> T  </i>
   <i type="logical" name="LSCALAPACK"> T  </i>
   <i type="logical" name="LSCAAWARE"> F  </i>
   <i type="logical" name="LSCALU"> F  </i>
   <i type="logical" name="LASYNC"> F  </i>
   <i type="logical" name="LORBITALREAL"> F  </i>
  </separator>
  <separator name="miscellaneous" >
   <i type="int" name="IDIOT">     3</i>
   <i type="logical" name="LMUSIC"> F  </i>
   <v name="POMASS">     12.01100000     12.01100000      1.00000000     14.00100000     16.00000000    101.07000000</v>
   <v name="DARWINR">      0.00000000      0.00000000      0.00000000      0.00000000      0.00000000      0.00000000</v>
   <v name="DARWINV">      1.00000000      1.00000000      1.00000000      1.00000000      1.00000000      1.00000000</v>
   <i type="logical" name="LCORR"> T  </i>
  </separator>
  <i type="logical" name="GGA_COMPAT"> T  </i>
  <i type="logical" name="LBERRY"> F  </i>
  <i type="int" name="ICORELEVEL">     2</i>
  <i type="int" name="CLNT">     1</i>
  <i type="int" name="CLN">     1</i>
  <i type="int" name="CLL">     0</i>
  <i name="CLZ">      0.50000000</i>
  <i type="logical" name="LDAU"> F  </i>
  <i type="int" name="I_CONSTRAINED_M">     0</i>
  <separator name="electronic exchange-correlation" >
   <i type="string" name="GGA">--</i>
   <i type="int" name="VOSKOWN">     0</i>
   <i type="logical" name="LHFCALC"> F  </i>
   <i type="string" name="PRECFOCK"></i>
   <i type="logical" name="LSYMGRAD"> F  </i>
   <i type="logical" name="LHFONE"> F  </i>
   <i type="logical" name="LRHFCALC"> F  </i>
   <i type="logical" name="LTHOMAS"> F  </i>
   <i type="logical" name="LMODELHF"> F  </i>
   <i name="ENCUT4O">     -1.00000000</i>
   <i type="int" name="EXXOEP">     0</i>
   <i type="int" name="FOURORBIT">     0</i>
   <i name="AEXX">      0.00000000</i>
   <i name="HFALPHA">      0.00000000</i>
   <i name="MCALPHA">      0.00000000</i>
   <i name="ALDAX">      1.00000000</i>
   <i name="AGGAX">      1.00000000</i>
   <i name="ALDAC">      1.00000000</i>
   <i name="AGGAC">      1.00000000</i>
   <i type="int" name="NKREDX">     1</i>
   <i type="int" name="NKREDY">     1</i>
   <i type="int" name="NKREDZ">     1</i>
   <i type="logical" name="SHIFTRED"> F  </i>
   <i type="logical" name="ODDONLY"> F  </i>
   <i type="logical" name="EVENONLY"> F  </i>
   <i type="int" name="LMAXFOCK">     0</i>
   <i type="int" name="NMAXFOCKAE">     0</i>
   <i type="logical" name="LFOCKAEDFT"> F  </i>
   <i name="HFSCREEN">      0.00000000</i>
   <i name="HFSCREENC">      0.00000000</i>
   <i type="int" name="NBANDSGWLOW">     0</i>
  </separator>
  <separator name="vdW DFT" >
   <i type="logical" name="LUSE_VDW"> F  </i>
   <i name="Zab_VDW">     -0.84910000</i>
   <i name="PARAM1">      0.12340000</i>
   <i name="PARAM2">      1.00000000</i>
   <i name="PARAM3">      0.00000000</i>
  </separator>
  <separator name="model GW" >
   <i type="int" name="MODEL_GW">     0</i>
   <i name="MODEL_EPS0">     87.27272727</i>
   <i name="MODEL_ALPHA">      1.00000000</i>
  </separator>
  <separator name="linear response parameters" >
   <i type="logical" name="LEPSILON"> F  </i>
   <i type="logical" name="LRPA"> F  </i>
   <i type="logical" name="LNABLA"> F  </i>
   <i type="logical" name="LVEL"> F  </i>
   <i type="int" name="KINTER">     0</i>
   <i name="CSHIFT">      0.10000000</i>
   <i name="OMEGAMAX">     -1.00000000</i>
   <i name="DEG_THRESHOLD">      0.00200000</i>
  </separator>
  <separator name="orbital magnetization" >
   <i type="logical" name="NUCIND"> F  </i>
   <v name="MAGPOS">      0.00000000      0.00000000      0.00000000</v>
   <i type="logical" name="LNICSALL"> T  </i>
   <i type="logical" name="ORBITALMAG"> F  </i>
   <i type="logical" name="LMAGBLOCH"> F  </i>
   <i type="logical" name="LCHIMAG"> F  </i>
   <i type="logical" name="LGAUGE"> T  </i>
   <i type="int" name="MAGATOM">     0</i>
   <v name="MAGDIPOL">      0.00000000      0.00000000      0.00000000</v>
   <v name="AVECCONST">      0.00000000      0.00000000      0.00000000</v>
  </separator>
  <separator name="response functions" >
   <i type="logical" name="LADDER"> F  </i>
   <i type="logical" name="LFXC"> F  </i>
   <i type="logical" name="LHARTREE"> T  </i>
   <i type="int" name="IBSE">     0</i>
   <i type="logical" name="LTCTE"> F  </i>
   <i type="logical" name="LTETE"> F  </i>
   <i type="logical" name="LTRIPLET"> F  </i>
   <i type="logical" name="LFXCEPS"> F  </i>
   <i type="logical" name="LFXHEG"> F  </i>
   <i type="logical" name="L2ORDER"> F  </i>
   <i type="logical" name="LUSEW"> F  </i>
   <i name="ENCUTGW">     -2.00000000</i>
   <i name="ENCUTGWSOFT">     -2.00000000</i>
   <i name="ENCUTLF">     -1.00000000</i>
   <i type="int" name="LMAXMP2">    -1</i>
   <i name="SCISSOR">      0.00000000</i>
   <i type="int" name="NOMEGA">     0</i>
   <i type="int" name="NOMEGAR">     0</i>
   <i type="int" name="NBANDSGW">    -1</i>
   <i type="int" name="NBANDSO">    -1</i>
   <i type="int" name="NBANDSV">    -1</i>
   <i type="int" name="NELM">     1</i>
   <i type="int" name="DIM">     3</i>
   <i type="int" name="ANTIRES">     0</i>
   <i name="OMEGAMAX">    -30.00000000</i>
   <i name="OMEGAMIN">    -30.00000000</i>
   <i name="OMEGATL">   -200.00000000</i>
   <i type="int" name="OMEGAGRID">     0</i>
   <i name="CSHIFT">     -0.10000000</i>
   <i type="logical" name="SELFENERGY"> F  </i>
   <i type="logical" name="LSPECTRAL"> F  </i>
   <i type="logical" name="ODDONLYGW"> F  </i>
   <i type="logical" name="EVENONLYGW"> F  </i>
   <i type="int" name="NKREDLFX">     1</i>
   <i type="int" name="NKREDLFY">     1</i>
   <i type="int" name="NKREDLFZ">     1</i>
   <i type="int" name="MAXMEM">  1800</i>
   <i type="int" name="TELESCOPE">     0</i>
   <i type="int" name="TAUPAR">     1</i>
  </separator>
  <separator name="External order field" >
   <i name="OFIELD_KAPPA">      0.00000000</i>
   <v name="OFIELD_K">      0.00000000      0.00000000      0.00000000</v>
   <i name="OFIELD_Q6_NEAR">      0.00000000</i>
   <i name="OFIELD_Q6_FAR">      0.00000000</i>
   <i name="OFIELD_A">      0.00000000</i>
  </separator>
 </parameters>
 <atominfo>
  <atoms>      55 </atoms>
  <types>       6 </types>
  <array name="atoms" >
   <dimension dim="1">ion</dimension>
   <field type="string">element</field>
   <field type="int">atomtype</field>
   <set>
    <rc><c>C </c><c>   1</c></rc>
    <rc><c>C </c><c>   2</c></rc>
    <rc><c>C </c><c>   2</c></rc>
    <rc><c>C </c><c>   2</c></rc>
    <rc><c>C </c><c>   2</c></rc>
    <rc><c>C </c><c>   2</c></rc>
    <rc><c>C </c><c>   2</c></rc>
    <rc><c>C </c><c>   2</c></rc>
    <rc><c>C </c><c>   2</c></rc>
    <rc><c>C </c><c>   2</c></rc>
    <rc><c>C </c><c>   2</c></rc>
    <rc><c>C </c><c>   2</c></rc>
    <rc><c>C </c><c>   2</c></rc>
    <rc><c>C </c><c>   2</c></rc>
    <rc><c>C </c><c>   2</c></rc>
    <rc><c>C </c><c>   2</c></rc>
    <rc><c>C </c><c>   2</c></rc>
    <rc><c>C </c><c>   2</c></rc>
    <rc><c>C </c><c>   2</c></rc>
    <rc><c>C </c><c>   2</c></rc>
    <rc><c>C </c><c>   2</c></rc>
    <rc><c>C </c><c>   2</c></rc>
    <rc><c>C </c><c>   2</c></rc>
    <rc><c>C </c><c>   2</c></rc>
    <rc><c>C </c><c>   2</c></rc>
    <rc><c>H </c><c>   3</c></rc>
    <rc><c>H </c><c>   3</c></rc>
    <rc><c>H </c><c>   3</c></rc>
    <rc><c>H </c><c>   3</c></rc>
    <rc><c>H </c><c>   3</c></rc>
    <rc><c>H </c><c>   3</c></rc>
    <rc><c>H </c><c>   3</c></rc>
    <rc><c>H </c><c>   3</c></rc>
    <rc><c>H </c><c>   3</c></rc>
    <rc><c>H </c><c>   3</c></rc>
    <rc><c>H </c><c>   3</c></rc>
    <rc><c>H </c><c>   3</c></rc>
    <rc><c>H </c><c>   3</c></rc>
    <rc><c>H </c><c>   3</c></rc>
    <rc><c>H </c><c>   3</c></rc>
    <rc><c>H </c><c>   3</c></rc>
    <rc><c>H </c><c>   3</c></rc>
    <rc><c>H </c><c>   3</c></rc>
    <rc><c>H </c><c>   3</c></rc>
    <rc><c>H </c><c>   3</c></rc>
    <rc><c>H </c><c>   3</c></rc>
    <rc><c>H </c><c>   3</c></rc>
    <rc><c>H </c><c>   3</c></rc>
    <rc><c>N </c><c>   4</c></rc>
    <rc><c>N </c><c>   4</c></rc>
    <rc><c>N </c><c>   4</c></rc>
    <rc><c>N </c><c>   4</c></rc>
    <rc><c>N </c><c>   4</c></rc>
    <rc><c>O </c><c>   5</c></rc>
    <rc><c>Ru</c><c>   6</c></rc>
   </set>
  </array>
  <array name="atomtypes" >
   <dimension dim="1">type</dimension>
   <field type="int">atomspertype</field>
   <field type="string">element</field>
   <field>mass</field>
   <field>valence</field>
   <field type="string">pseudopotential</field>
   <set>
    <rc><c>   1</c><c>C </c><c>     12.01100000</c><c>      4.50000000</c><c>  PAW_PBE C_h 06Feb2004                 </c></rc>
    <rc><c>  24</c><c>C </c><c>     12.01100000</c><c>      4.00000000</c><c>  PAW_PBE C_h 06Feb2004                 </c></rc>
    <rc><c>  23</c><c>H </c><c>      1.00000000</c><c>      1.00000000</c><c>  PAW_PBE H 15Jun2001                   </c></rc>
    <rc><c>   5</c><c>N </c><c>     14.00100000</c><c>      5.00000000</c><c>  PAW_PBE N_h 06Feb2004                 </c></rc>
    <rc><c>   1</c><c>O </c><c>     16.00000000</c><c>      6.00000000</c><c>  PAW_PBE O_h 06Feb2004                 </c></rc>
    <rc><c>   1</c><c>Ru</c><c>    101.07000000</c><c>     14.00000000</c><c>  PAW_PBE Ru_pv 28Jan2005               </c></rc>
   </set>
  </array>
 </atominfo>
 <structure name="initialpos" >
  <crystal>
   <varray name="basis" >
    <v>      20.00000000       0.00000000       0.00000000 </v>
    <v>       0.00000000      20.00000000       0.00000000 </v>
    <v>       0.00000000       0.00000000      20.00000000 </v>
   </varray>
   <i name="volume">   8000.00000000 </i>
   <varray name="rec_basis" >
    <v>       0.05000000       0.00000000       0.00000000 </v>
    <v>       0.00000000       0.05000000       0.00000000 </v>
    <v>       0.00000000       0.00000000       0.05000000 </v>
   </varray>
  </crystal>
  <varray name="positions" >
   <v>       0.30486503       0.39173492       0.48443166 </v>
   <v>       0.43793752       0.56561110       0.32757008 </v>
   <v>       0.45581208       0.52423376       0.38051465 </v>
   <v>       0.47372925       0.61530131       0.44986522 </v>
   <v>       0.45595175       0.65963312       0.39935201 </v>
   <v>       0.43785737       0.63472201       0.33675972 </v>
   <v>       0.52307882       0.32955005       0.67474498 </v>
   <v>       0.49710163       0.37190466       0.62618823 </v>
   <v>       0.60227374       0.41933300       0.60593616 </v>
   <v>       0.63096398       0.37761922       0.65422416 </v>
   <v>       0.73964927       0.52855915       0.53463181 </v>
   <v>       0.70082162       0.56612858       0.49044049 </v>
   <v>       0.63257913       0.55363620       0.48652424 </v>
   <v>       0.63952130       0.46927713       0.56732841 </v>
   <v>       0.70843899       0.47974495       0.57314689 </v>
   <v>       0.59134754       0.33224398       0.68903016 </v>
   <v>       0.36211554       0.48866484       0.56417415 </v>
   <v>       0.40790931       0.62211625       0.69058213 </v>
   <v>       0.47619960       0.62606623       0.67660612 </v>
   <v>       0.50295190       0.58590820       0.62668073 </v>
   <v>       0.39825425       0.53800137       0.60426081 </v>
   <v>       0.36904589       0.57756069       0.65398228 </v>
   <v>       0.37289802       0.40579857       0.48223443 </v>
   <v>       0.29334713       0.47671938       0.56830116 </v>
   <v>       0.26422003       0.42785518       0.52821594 </v>
   <v>       0.48989745       0.29510618       0.70074864 </v>
   <v>       0.61334240       0.29968355       0.72673159 </v>
   <v>       0.68424189       0.38076917       0.66478776 </v>
   <v>       0.54225374       0.36233861       0.46129841 </v>
   <v>       0.31579090       0.57306911       0.66420366 </v>
   <v>       0.44416348       0.37118871       0.61364770 </v>
   <v>       0.42392665       0.66833230       0.29622671 </v>
   <v>       0.45642762       0.71313270       0.40950260 </v>
   <v>       0.48809132       0.63358802       0.49907234 </v>
   <v>       0.56912778       0.41808713       0.41480476 </v>
   <v>       0.73767440       0.44963919       0.60776512 </v>
   <v>       0.72277620       0.60481012       0.45904817 </v>
   <v>       0.45570253       0.47012894       0.37468790 </v>
   <v>       0.40614333       0.37888556       0.44852541 </v>
   <v>       0.28443799       0.35306162       0.45202062 </v>
   <v>       0.79326502       0.53703787       0.53892527 </v>
   <v>       0.55589708       0.58769132       0.61440612 </v>
   <v>       0.42412006       0.54328620       0.27986105 </v>
   <v>       0.50894741       0.65984570       0.70400156 </v>
   <v>       0.26265982       0.50568523       0.60265428 </v>
   <v>       0.21072272       0.41813760       0.53105039 </v>
   <v>       0.60090654       0.58197914       0.45254259 </v>
   <v>       0.38544357       0.65296704       0.72941133 </v>
   <v>       0.47424490       0.54794204       0.44140236 </v>
   <v>       0.40180479       0.45306079       0.52108436 </v>
   <v>       0.53520702       0.41608490       0.59173240 </v>
   <v>       0.46544808       0.54254992       0.59041194 </v>
   <v>       0.60138410       0.50650621       0.52397638 </v>
   <v>       0.53073984       0.40562607       0.44215451 </v>
   <v>       0.50088568       0.48087016       0.51934246 </v>
  </varray>
  <varray name="selective"  type="logical" >
   <v type="logical" >  T  T  T </v>
   <v type="logical" >  T  T  T </v>
   <v type="logical" >  T  T  T </v>
   <v type="logical" >  T  T  T </v>
   <v type="logical" >  T  T  T </v>
   <v type="logical" >  T  T  T </v>
   <v type="logical" >  T  T  T </v>
   <v type="logical" >  T  T  T </v>
   <v type="logical" >  T  T  T </v>
   <v type="logical" >  T  T  T </v>
   <v type="logical" >  T  T  T </v>
   <v type="logical" >  T  T  T </v>
   <v type="logical" >  T  T  T </v>
   <v type="logical" >  T  T  T </v>
   <v type="logical" >  T  T  T </v>
   <v type="logical" >  T  T  T </v>
   <v type="logical" >  T  T  T </v>
   <v type="logical" >  T  T  T </v>
   <v type="logical" >  T  T  T </v>
   <v type="logical" >  T  T  T </v>
   <v type="logical" >  T  T  T </v>
   <v type="logical" >  T  T  T </v>
   <v type="logical" >  T  T  T </v>
   <v type="logical" >  T  T  T </v>
   <v type="logical" >  T  T  T </v>
   <v type="logical" >  T  T  T </v>
   <v type="logical" >  T  T  T </v>
   <v type="logical" >  T  T  T </v>
   <v type="logical" >  T  T  T </v>
   <v type="logical" >  T  T  T </v>
   <v type="logical" >  T  T  T </v>
   <v type="logical" >  T  T  T </v>
   <v type="logical" >  T  T  T </v>
   <v type="logical" >  T  T  T </v>
   <v type="logical" >  T  T  T </v>
   <v type="logical" >  T  T  T </v>
   <v type="logical" >  T  T  T </v>
   <v type="logical" >  T  T  T </v>
   <v type="logical" >  T  T  T </v>
   <v type="logical" >  T  T  T </v>
   <v type="logical" >  T  T  T </v>
   <v type="logical" >  T  T  T </v>
   <v type="logical" >  T  T  T </v>
   <v type="logical" >  T  T  T </v>
   <v type="logical" >  T  T  T </v>
   <v type="logical" >  T  T  T </v>
   <v type="logical" >  T  T  T </v>
   <v type="logical" >  T  T  T </v>
   <v type="logical" >  T  T  T </v>
   <v type="logical" >  T  T  T </v>
   <v type="logical" >  T  T  T </v>
   <v type="logical" >  T  T  T </v>
   <v type="logical" >  T  T  T </v>
   <v type="logical" >  T  T  T </v>
   <v type="logical" >  T  T  T </v>
  </varray>
  <nose>
   <v>      -3.00000000       0.00000000       0.00010000       0.00010000 </v>
  </nose>
 </structure>
 <calculation>
  <scstep>
   <time name="dav">   14.74   15.67</time>
   <time name="total">   22.35   23.31</time>
   <energy>
    <i name="alphaZ">     12.91687988 </i>
    <i name="ewald">  23273.35909505 </i>
    <i name="hartreedc"> -28875.66191487 </i>
    <i name="XCdc">    400.93279216 </i>
    <i name="pawpsdc">   5890.45591622 </i>
    <i name="pawaedc">  -5710.10246236 </i>
    <i name="eentropy">     -0.00000784 </i>
    <i name="bandstr">  -1675.97297592 </i>
    <i name="atom">   7593.39991119 </i>
    <i name="e_fr_energy">    909.32723352 </i>
    <i name="e_wo_entrp">    909.32724136 </i>
    <i name="e_0_energy">    909.32723744 </i>
   </energy>
  </scstep>
  <scstep>
   <time name="dav">   19.33   20.35</time>
   <time name="total">   19.43   20.45</time>
   <energy>
    <i name="e_fr_energy">    -67.34776199 </i>
    <i name="e_wo_entrp">    -67.34776199 </i>
    <i name="e_0_energy">    -67.34776199 </i>
   </energy>
  </scstep>
  <scstep>
   <time name="dav">   14.96   15.77</time>
   <time name="total">   15.04   15.84</time>
   <energy>
    <i name="e_fr_energy">   -390.53419179 </i>
    <i name="e_wo_entrp">   -390.53419179 </i>
    <i name="e_0_energy">   -390.53419179 </i>
   </energy>
  </scstep>
  <scstep>
   <time name="dav">   13.77   14.59</time>
   <time name="total">   13.87   14.70</time>
   <energy>
    <i name="e_fr_energy">   -412.24355867 </i>
    <i name="e_wo_entrp">   -412.24355867 </i>
    <i name="e_0_energy">   -412.24355867 </i>
   </energy>
  </scstep>
  <scstep>
   <time name="dav">   15.80   16.92</time>
   <time name="total">   21.20   22.34</time>
   <energy>
    <i name="e_fr_energy">   -412.51162946 </i>
    <i name="e_wo_entrp">   -412.51162946 </i>
    <i name="e_0_energy">   -412.51162946 </i>
   </energy>
  </scstep>
  <scstep>
   <time name="dav">   11.80   12.61</time>
   <time name="total">   24.68   25.54</time>
   <energy>
    <i name="e_fr_energy">   -393.40895599 </i>
    <i name="e_wo_entrp">   -393.40895599 </i>
    <i name="e_0_energy">   -393.40895599 </i>
   </energy>
  </scstep>
  <scstep>
   <time name="dav">   13.85   14.74</time>
   <time name="total">   26.32   27.39</time>
   <energy>
    <i name="e_fr_energy">   -382.94950213 </i>
    <i name="e_wo_entrp">   -382.94950213 </i>
    <i name="e_0_energy">   -382.94950213 </i>
   </energy>
  </scstep>
  <scstep>
   <time name="dav">   15.66   16.50</time>
   <time name="total">   28.46   29.34</time>
   <energy>
    <i name="e_fr_energy">   -378.82372823 </i>
    <i name="e_wo_entrp">   -378.82372823 </i>
    <i name="e_0_energy">   -378.82372823 </i>
   </energy>
  </scstep>
  <scstep>
   <time name="dav">   15.40   16.26</time>
   <time name="total">   28.14   29.02</time>
   <energy>
    <i name="e_fr_energy">   -377.70042967 </i>
    <i name="e_wo_entrp">   -377.70042967 </i>
    <i name="e_0_energy">   -377.70042967 </i>
   </energy>
  </scstep>
  <scstep>
   <time name="dav">   15.58   16.49</time>
   <time name="total">   28.38   29.46</time>
   <energy>
    <i name="e_fr_energy">   -377.66628359 </i>
    <i name="e_wo_entrp">   -377.66628359 </i>
    <i name="e_0_energy">   -377.66628359 </i>
   </energy>
  </scstep>
  <scstep>
   <time name="dav">   15.39   16.26</time>
   <time name="total">   28.16   29.07</time>
   <energy>
    <i name="e_fr_energy">   -377.54734783 </i>
    <i name="e_wo_entrp">   -377.54734783 </i>
    <i name="e_0_energy">   -377.54734783 </i>
   </energy>
  </scstep>
  <scstep>
   <time name="dav">   15.56   16.40</time>
   <time name="total">   28.28   29.33</time>
   <energy>
    <i name="e_fr_energy">   -377.46585251 </i>
    <i name="e_wo_entrp">   -377.46585251 </i>
    <i name="e_0_energy">   -377.46585251 </i>
   </energy>
  </scstep>
  <scstep>
   <time name="dav">   15.43   16.27</time>
   <time name="total">   28.21   29.07</time>
   <energy>
    <i name="e_fr_energy">   -377.44485852 </i>
    <i name="e_wo_entrp">   -377.44485852 </i>
    <i name="e_0_energy">   -377.44485852 </i>
   </energy>
  </scstep>
  <scstep>
   <time name="dav">   15.53   16.37</time>
   <time name="total">   28.52   29.50</time>
   <energy>
    <i name="e_fr_energy">   -377.43091587 </i>
    <i name="e_wo_entrp">   -377.43091587 </i>
    <i name="e_0_energy">   -377.43091587 </i>
   </energy>
  </scstep>
  <scstep>
   <time name="dav">   15.41   16.25</time>
   <time name="total">   28.33   29.21</time>
   <energy>
    <i name="e_fr_energy">   -377.43188075 </i>
    <i name="e_wo_entrp">   -377.43188075 </i>
    <i name="e_0_energy">   -377.43188075 </i>
   </energy>
  </scstep>
  <scstep>
   <time name="dav">   15.55   16.38</time>
   <time name="total">   28.29   29.35</time>
   <energy>
    <i name="e_fr_energy">   -377.44160407 </i>
    <i name="e_wo_entrp">   -377.44160407 </i>
    <i name="e_0_energy">   -377.44160407 </i>
   </energy>
  </scstep>
  <scstep>
   <time name="dav">   15.39   16.26</time>
   <time name="total">   28.26   29.17</time>
   <energy>
    <i name="e_fr_energy">   -377.44781493 </i>
    <i name="e_wo_entrp">   -377.44781493 </i>
    <i name="e_0_energy">   -377.44781493 </i>
   </energy>
  </scstep>
  <scstep>
   <time name="dav">   15.48   16.34</time>
   <time name="total">   28.16   29.27</time>
   <energy>
    <i name="e_fr_energy">   -377.45196375 </i>
    <i name="e_wo_entrp">   -377.45196375 </i>
    <i name="e_0_energy">   -377.45196375 </i>
   </energy>
  </scstep>
  <scstep>
   <time name="dav">   15.41   16.26</time>
   <time name="total">   28.27   29.16</time>
   <energy>
    <i name="e_fr_energy">   -377.45684399 </i>
    <i name="e_wo_entrp">   -377.45684399 </i>
    <i name="e_0_energy">   -377.45684399 </i>
   </energy>
  </scstep>
  <scstep>
   <time name="dav">   15.57   16.50</time>
   <time name="total">   28.52   29.49</time>
   <energy>
    <i name="e_fr_energy">   -377.45919155 </i>
    <i name="e_wo_entrp">   -377.45919155 </i>
    <i name="e_0_energy">   -377.45919155 </i>
   </energy>
  </scstep>
  <scstep>
   <time name="dav">   15.04   16.31</time>
   <time name="total">   27.99   29.41</time>
   <energy>
    <i name="e_fr_energy">   -377.46064944 </i>
    <i name="e_wo_entrp">   -377.46064944 </i>
    <i name="e_0_energy">   -377.46064944 </i>
   </energy>
  </scstep>
  <scstep>
   <time name="dav">   15.29   16.59</time>
   <time name="total">   28.12   29.50</time>
   <energy>
    <i name="e_fr_energy">   -377.46199281 </i>
    <i name="e_wo_entrp">   -377.46199281 </i>
    <i name="e_0_energy">   -377.46199281 </i>
   </energy>
  </scstep>
  <scstep>
   <time name="dav">   13.04   14.29</time>
   <time name="total">   25.91   27.22</time>
   <energy>
    <i name="e_fr_energy">   -377.46269110 </i>
    <i name="e_wo_entrp">   -377.46269110 </i>
    <i name="e_0_energy">   -377.46269110 </i>
   </energy>
  </scstep>
  <scstep>
   <time name="dav">   13.25   14.45</time>
   <time name="total">   26.13   27.39</time>
   <energy>
    <i name="e_fr_energy">   -377.46315646 </i>
    <i name="e_wo_entrp">   -377.46315646 </i>
    <i name="e_0_energy">   -377.46315646 </i>
   </energy>
  </scstep>
  <scstep>
   <time name="dav">   13.86   15.15</time>
   <time name="total">   26.65   28.19</time>
   <energy>
    <i name="e_fr_energy">   -377.46340693 </i>
    <i name="e_wo_entrp">   -377.46340693 </i>
    <i name="e_0_energy">   -377.46340693 </i>
   </energy>
  </scstep>
  <scstep>
   <time name="dav">   13.31   14.44</time>
   <time name="total">   26.25   27.45</time>
   <energy>
    <i name="e_fr_energy">   -377.46355072 </i>
    <i name="e_wo_entrp">   -377.46355072 </i>
    <i name="e_0_energy">   -377.46355072 </i>
   </energy>
  </scstep>
  <scstep>
   <time name="dav">   13.23   14.38</time>
   <time name="total">   26.13   27.31</time>
   <energy>
    <i name="e_fr_energy">   -377.46362748 </i>
    <i name="e_wo_entrp">   -377.46362748 </i>
    <i name="e_0_energy">   -377.46362748 </i>
   </energy>
  </scstep>
  <scstep>
   <time name="dav">   13.11   14.25</time>
   <time name="total">   25.94   27.26</time>
   <energy>
    <i name="e_fr_energy">   -377.46366498 </i>
    <i name="e_wo_entrp">   -377.46366498 </i>
    <i name="e_0_energy">   -377.46366498 </i>
   </energy>
  </scstep>
  <scstep>
   <time name="dav">   13.22   14.39</time>
   <time name="total">   26.14   27.43</time>
   <energy>
    <i name="e_fr_energy">   -377.46368857 </i>
    <i name="e_wo_entrp">   -377.46368857 </i>
    <i name="e_0_energy">   -377.46368857 </i>
   </energy>
  </scstep>
  <scstep>
   <time name="dav">   13.06   14.26</time>
   <time name="total">   20.58   21.82</time>
   <energy>
    <i name="alphaZ">     12.91687988 </i>
    <i name="ewald">  23273.35909505 </i>
    <i name="hartreedc"> -29116.86042116 </i>
    <i name="XCdc">    424.27736967 </i>
    <i name="pawpsdc">  81135.94286768 </i>
    <i name="pawaedc"> -80962.72883494 </i>
    <i name="eentropy">     -0.00000000 </i>
    <i name="bandstr">  -2737.77056558 </i>
    <i name="atom">   7593.39991119 </i>
    <i name="e_fr_energy">   -377.46369821 </i>
    <i name="e_wo_entrp">   -377.46369821 </i>
    <i name="e_0_energy">   -377.46369821 </i>
   </energy>
  </scstep>
  <structure>
   <crystal>
    <varray name="basis" >
     <v>      20.00000000       0.00000000       0.00000000 </v>
     <v>       0.00000000      20.00000000       0.00000000 </v>
     <v>       0.00000000       0.00000000      20.00000000 </v>
    </varray>
    <i name="volume">   8000.00000000 </i>
    <varray name="rec_basis" >
     <v>       0.05000000       0.00000000       0.00000000 </v>
     <v>       0.00000000       0.05000000       0.00000000 </v>
     <v>       0.00000000       0.00000000       0.05000000 </v>
    </varray>
   </crystal>
   <varray name="positions" >
    <v>       0.30486503       0.39173492       0.48443166 </v>
    <v>       0.43793752       0.56561110       0.32757008 </v>
    <v>       0.45581208       0.52423376       0.38051465 </v>
    <v>       0.47372925       0.61530131       0.44986522 </v>
    <v>       0.45595175       0.65963312       0.39935201 </v>
    <v>       0.43785737       0.63472201       0.33675972 </v>
    <v>       0.52307882       0.32955005       0.67474498 </v>
    <v>       0.49710163       0.37190466       0.62618823 </v>
    <v>       0.60227374       0.41933300       0.60593616 </v>
    <v>       0.63096398       0.37761922       0.65422416 </v>
    <v>       0.73964927       0.52855915       0.53463181 </v>
    <v>       0.70082162       0.56612858       0.49044049 </v>
    <v>       0.63257913       0.55363620       0.48652424 </v>
    <v>       0.63952130       0.46927713       0.56732841 </v>
    <v>       0.70843899       0.47974495       0.57314689 </v>
    <v>       0.59134754       0.33224398       0.68903016 </v>
    <v>       0.36211554       0.48866484       0.56417415 </v>
    <v>       0.40790931       0.62211625       0.69058213 </v>
    <v>       0.47619960       0.62606623       0.67660612 </v>
    <v>       0.50295190       0.58590820       0.62668073 </v>
    <v>       0.39825425       0.53800137       0.60426081 </v>
    <v>       0.36904589       0.57756069       0.65398228 </v>
    <v>       0.37289802       0.40579857       0.48223443 </v>
    <v>       0.29334713       0.47671938       0.56830116 </v>
    <v>       0.26422003       0.42785518       0.52821594 </v>
    <v>       0.48989745       0.29510618       0.70074864 </v>
    <v>       0.61334240       0.29968355       0.72673159 </v>
    <v>       0.68424189       0.38076917       0.66478776 </v>
    <v>       0.54225374       0.36233861       0.46129841 </v>
    <v>       0.31579090       0.57306911       0.66420366 </v>
    <v>       0.44416348       0.37118871       0.61364770 </v>
    <v>       0.42392665       0.66833230       0.29622671 </v>
    <v>       0.45642762       0.71313270       0.40950260 </v>
    <v>       0.48809132       0.63358802       0.49907234 </v>
    <v>       0.56912778       0.41808713       0.41480476 </v>
    <v>       0.73767440       0.44963919       0.60776512 </v>
    <v>       0.72277620       0.60481012       0.45904817 </v>
    <v>       0.45570253       0.47012894       0.37468790 </v>
    <v>       0.40614333       0.37888556       0.44852541 </v>
    <v>       0.28443799       0.35306162       0.45202062 </v>
    <v>       0.79326502       0.53703787       0.53892527 </v>
    <v>       0.55589708       0.58769132       0.61440612 </v>
    <v>       0.42412006       0.54328620       0.27986105 </v>
    <v>       0.50894741       0.65984570       0.70400156 </v>
    <v>       0.26265982       0.50568523       0.60265428 </v>
    <v>       0.21072272       0.41813760       0.53105039 </v>
    <v>       0.60090654       0.58197914       0.45254259 </v>
    <v>       0.38544357       0.65296704       0.72941133 </v>
    <v>       0.47424490       0.54794204       0.44140236 </v>
    <v>       0.40180479       0.45306079       0.52108436 </v>
    <v>       0.53520702       0.41608490       0.59173240 </v>
    <v>       0.46544808       0.54254992       0.59041194 </v>
    <v>       0.60138410       0.50650621       0.52397638 </v>
    <v>       0.53073984       0.40562607       0.44215451 </v>
    <v>       0.50088568       0.48087016       0.51934246 </v>
   </varray>
  </structure>
  <varray name="forces" >
   <v>       0.31399877       0.13603924       0.05818894 </v>
   <v>      -0.01454102      -0.03211347      -0.00739882 </v>
   <v>      -0.00836200       0.01254233       0.00129547 </v>
   <v>       0.00822684       0.00081247       0.01499733 </v>
   <v>      -0.00105215       0.01234918       0.00657568 </v>
   <v>       0.00632555       0.00708516       0.00888598 </v>
   <v>      -0.01738541      -0.00919885       0.00763923 </v>
   <v>       0.03748906       0.01540097      -0.02103143 </v>
   <v>      -0.01496200      -0.00053837       0.00384056 </v>
   <v>      -0.00089993       0.01197254      -0.00805353 </v>
   <v>      -0.02141422       0.01501586      -0.02046126 </v>
   <v>       0.02703803      -0.00896079       0.01362521 </v>
   <v>      -0.06863101      -0.00063388      -0.01706792 </v>
   <v>      -0.02744217      -0.00139761      -0.00530715 </v>
   <v>      -0.01328894      -0.00572745       0.00261294 </v>
   <v>      -0.01658284       0.00088832      -0.00595968 </v>
   <v>      -0.09779711       0.21518135       0.23263338 </v>
   <v>      -0.01444696       0.02578779       0.03181980 </v>
   <v>      -0.06859038       0.00221545       0.02125394 </v>
   <v>       0.00966797      -0.08157223      -0.08308689 </v>
   <v>      -0.02586764      -0.00100096      -0.00402174 </v>
   <v>      -0.07165413      -0.02502956      -0.00860859 </v>
   <v>      -0.97129578      -0.06095277       0.14566730 </v>
   <v>       0.02285580      -0.10290303      -0.10765046 </v>
   <v>       0.49997917      -0.34142388      -0.44142798 </v>
   <v>       0.00137309      -0.00556591       0.00593245 </v>
   <v>      -0.00078623      -0.00458160       0.00434144 </v>
   <v>      -0.00256910      -0.00042650       0.00256742 </v>
   <v>       0.05128985      -0.01805351      -0.00148635 </v>
   <v>      -0.01056434       0.02709392       0.02457012 </v>
   <v>       0.00239461      -0.02133917       0.02458816 </v>
   <v>       0.00000133       0.00505049      -0.00319576 </v>
   <v>       0.00556621       0.00164867      -0.00095331 </v>
   <v>       0.00941754       0.01369393      -0.00952940 </v>
   <v>       0.01520861      -0.00363384      -0.03359689 </v>
   <v>       0.00195972       0.00091844       0.00098884 </v>
   <v>      -0.00111520       0.00226550      -0.00478861 </v>
   <v>       0.01957635      -0.00776455      -0.02566503 </v>
   <v>      -0.16721032      -0.07325821      -0.03499813 </v>
   <v>       0.41657352       0.83015743       0.70263565 </v>
   <v>       0.00059949       0.00331463       0.00149356 </v>
   <v>       0.00047113      -0.00190227      -0.00081275 </v>
   <v>      -0.00152045       0.00271010      -0.00202340 </v>
   <v>       0.00157453       0.00811705       0.00537260 </v>
   <v>      -0.04717095      -0.05834416      -0.04795075 </v>
   <v>       0.04614454      -0.12486450      -0.12987008 </v>
   <v>       0.01105933       0.00299983      -0.00392411 </v>
   <v>      -0.00573931       0.00233345       0.00333951 </v>
   <v>       0.00590667       0.05558408      -0.06638897 </v>
   <v>       0.08235346      -0.27709767      -0.29425176 </v>
   <v>       0.07766499      -0.07050907       0.06435105 </v>
   <v>       0.12202111      -0.07989963      -0.08347126 </v>
   <v>       0.08172498       0.03444351       0.01708101 </v>
   <v>      -0.04702927       0.02294239       0.06065623 </v>
   <v>      -0.14054343      -0.04987067       0.00602822 </v>
  </varray>
  <varray name="stress" >
   <v>      -3.08681982      -0.16636512      -0.06966902 </v>
   <v>      -0.16636511      -2.90758445      -0.31878027 </v>
   <v>      -0.06966905      -0.31878027      -2.86016886 </v>
  </varray>
  <energy>
   <i name="e_fr_energy">   -377.46369821 </i>
   <i name="e_wo_entrp">   -377.46369821 </i>
   <i name="e_0_energy">     -0.00000000 </i>
  </energy>
  <time name="totalsc"> 1011.77 1045.82</time>
  <eigenvalues>
   <array>
    <dimension dim="1">band</dimension>
    <dimension dim="2">kpoint</dimension>
    <dimension dim="3">spin</dimension>
    <field>eigene</field>
    <field>occ</field>
    <set>
     <set comment="spin 1">
      <set comment="kpoint 1">
       <r>  -49.0604    1.0000 </r>
       <r>  -48.9141    1.0000 </r>
       <r>  -48.7036    1.0000 </r>
       <r>  -29.1697    1.0000 </r>
       <r>  -27.4996    1.0000 </r>
       <r>  -26.8001    1.0000 </r>
       <r>  -26.5990    1.0000 </r>
       <r>  -26.1756    1.0000 </r>
       <r>  -26.1029    1.0000 </r>
       <r>  -23.9960    1.0000 </r>
       <r>  -22.9866    1.0000 </r>
       <r>  -22.5197    1.0000 </r>
       <r>  -22.4008    1.0000 </r>
       <r>  -22.2772    1.0000 </r>
       <r>  -22.1768    1.0000 </r>
       <r>  -22.0511    1.0000 </r>
       <r>  -21.5261    1.0000 </r>
       <r>  -21.1271    1.0000 </r>
       <r>  -20.7640    1.0000 </r>
       <r>  -19.5842    1.0000 </r>
       <r>  -19.2881    1.0000 </r>
       <r>  -18.6849    1.0000 </r>
       <r>  -18.4219    1.0000 </r>
       <r>  -18.1503    1.0000 </r>
       <r>  -17.9255    1.0000 </r>
       <r>  -17.8260    1.0000 </r>
       <r>  -17.6451    1.0000 </r>
       <r>  -17.5721    1.0000 </r>
       <r>  -17.2718    1.0000 </r>
       <r>  -16.8508    1.0000 </r>
       <r>  -16.5948    1.0000 </r>
       <r>  -15.8252    1.0000 </r>
       <r>  -15.7245    1.0000 </r>
       <r>  -15.6240    1.0000 </r>
       <r>  -15.2785    1.0000 </r>
       <r>  -14.7318    1.0000 </r>
       <r>  -14.7098    1.0000 </r>
       <r>  -14.6612    1.0000 </r>
       <r>  -14.3527    1.0000 </r>
       <r>  -14.0944    1.0000 </r>
       <r>  -14.0521    1.0000 </r>
       <r>  -14.0112    1.0000 </r>
       <r>  -13.8374    1.0000 </r>
       <r>  -13.7573    1.0000 </r>
       <r>  -13.7143    1.0000 </r>
       <r>  -13.5702    1.0000 </r>
       <r>  -13.4920    1.0000 </r>
       <r>  -13.3679    1.0000 </r>
       <r>  -13.2673    1.0000 </r>
       <r>  -13.1394    1.0000 </r>
       <r>  -12.8873    1.0000 </r>
       <r>  -12.8335    1.0000 </r>
       <r>  -12.7415    1.0000 </r>
       <r>  -12.6914    1.0000 </r>
       <r>  -12.5161    1.0000 </r>
       <r>  -12.4331    1.0000 </r>
       <r>  -12.3191    1.0000 </r>
       <r>  -12.2914    1.0000 </r>
       <r>  -12.2053    1.0000 </r>
       <r>  -12.0336    1.0000 </r>
       <r>  -11.5292    1.0000 </r>
       <r>  -11.4277    1.0000 </r>
       <r>  -11.2919    1.0000 </r>
       <r>  -11.1236    1.0000 </r>
       <r>  -11.0897    1.0000 </r>
       <r>  -11.0520    1.0000 </r>
       <r>  -10.7628    1.0000 </r>
       <r>  -10.6553    1.0000 </r>
       <r>  -10.5124    1.0000 </r>
       <r>  -10.3881    1.0000 </r>
       <r>  -10.0926    1.0000 </r>
       <r>  -10.0487    1.0000 </r>
       <r>   -9.7923    1.0000 </r>
       <r>   -9.7269    1.0000 </r>
       <r>   -9.6910    1.0000 </r>
       <r>   -9.5570    1.0000 </r>
       <r>   -9.4649    1.0000 </r>
       <r>   -8.9890    1.0000 </r>
       <r>   -8.7534    1.0000 </r>
       <r>   -8.3594    1.0000 </r>
       <r>   -7.3797    1.0000 </r>
       <r>   -7.2603    1.0000 </r>
       <r>   -7.1081    1.0000 </r>
       <r>   -5.7031    0.0000 </r>
       <r>   -4.9833    0.0000 </r>
       <r>   -4.9446    0.0000 </r>
       <r>   -4.3395    0.0000 </r>
       <r>   -4.1293    0.0000 </r>
       <r>   -4.0887    0.0000 </r>
       <r>   -3.9513    0.0000 </r>
       <r>   -3.8275    0.0000 </r>
       <r>   -3.5114    0.0000 </r>
       <r>   -3.4569    0.0000 </r>
       <r>   -3.1394    0.0000 </r>
       <r>   -2.8594    0.0000 </r>
       <r>   -2.7101    0.0000 </r>
       <r>   -1.9624    0.0000 </r>
       <r>   -1.6950    0.0000 </r>
       <r>   -1.5661    0.0000 </r>
       <r>   -1.3729    0.0000 </r>
       <r>   -1.2821    0.0000 </r>
       <r>   -1.2420    0.0000 </r>
       <r>   -1.1806    0.0000 </r>
       <r>   -0.9863    0.0000 </r>
       <r>   -0.8633    0.0000 </r>
       <r>   -0.7826    0.0000 </r>
       <r>   -0.6734    0.0000 </r>
       <r>   -0.5842    0.0000 </r>
       <r>   -0.5217    0.0000 </r>
       <r>   -0.5052    0.0000 </r>
       <r>   -0.4110    0.0000 </r>
       <r>   -0.3444    0.0000 </r>
       <r>   -0.2575    0.0000 </r>
       <r>   -0.1769    0.0000 </r>
       <r>   -0.0638    0.0000 </r>
       <r>    0.0594    0.0000 </r>
       <r>    0.1166    0.0000 </r>
       <r>    0.1811    0.0000 </r>
       <r>    0.2708    0.0000 </r>
       <r>    0.2782    0.0000 </r>
       <r>    0.3245    0.0000 </r>
       <r>    0.3746    0.0000 </r>
       <r>    0.4090    0.0000 </r>
       <r>    0.4492    0.0000 </r>
       <r>    0.5279    0.0000 </r>
       <r>    0.6178    0.0000 </r>
       <r>    0.6589    0.0000 </r>
       <r>    0.6922    0.0000 </r>
      </set>
     </set>
     <set comment="spin 2">
      <set comment="kpoint 1">
       <r>  -49.0604    1.0000 </r>
       <r>  -48.9141    1.0000 </r>
       <r>  -48.7036    1.0000 </r>
       <r>  -29.1697    1.0000 </r>
       <r>  -27.4996    1.0000 </r>
       <r>  -26.8001    1.0000 </r>
       <r>  -26.5990    1.0000 </r>
       <r>  -26.1756    1.0000 </r>
       <r>  -26.1029    1.0000 </r>
       <r>  -23.9960    1.0000 </r>
       <r>  -22.9866    1.0000 </r>
       <r>  -22.5197    1.0000 </r>
       <r>  -22.4008    1.0000 </r>
       <r>  -22.2772    1.0000 </r>
       <r>  -22.1768    1.0000 </r>
       <r>  -22.0511    1.0000 </r>
       <r>  -21.5261    1.0000 </r>
       <r>  -21.1271    1.0000 </r>
       <r>  -20.7640    1.0000 </r>
       <r>  -19.5842    1.0000 </r>
       <r>  -19.2881    1.0000 </r>
       <r>  -18.6849    1.0000 </r>
       <r>  -18.4219    1.0000 </r>
       <r>  -18.1503    1.0000 </r>
       <r>  -17.9255    1.0000 </r>
       <r>  -17.8260    1.0000 </r>
       <r>  -17.6451    1.0000 </r>
       <r>  -17.5721    1.0000 </r>
       <r>  -17.2718    1.0000 </r>
       <r>  -16.8508    1.0000 </r>
       <r>  -16.5948    1.0000 </r>
       <r>  -15.8252    1.0000 </r>
       <r>  -15.7245    1.0000 </r>
       <r>  -15.6240    1.0000 </r>
       <r>  -15.2785    1.0000 </r>
       <r>  -14.7318    1.0000 </r>
       <r>  -14.7098    1.0000 </r>
       <r>  -14.6612    1.0000 </r>
       <r>  -14.3527    1.0000 </r>
       <r>  -14.0944    1.0000 </r>
       <r>  -14.0521    1.0000 </r>
       <r>  -14.0112    1.0000 </r>
       <r>  -13.8374    1.0000 </r>
       <r>  -13.7573    1.0000 </r>
       <r>  -13.7143    1.0000 </r>
       <r>  -13.5702    1.0000 </r>
       <r>  -13.4920    1.0000 </r>
       <r>  -13.3679    1.0000 </r>
       <r>  -13.2673    1.0000 </r>
       <r>  -13.1394    1.0000 </r>
       <r>  -12.8873    1.0000 </r>
       <r>  -12.8335    1.0000 </r>
       <r>  -12.7415    1.0000 </r>
       <r>  -12.6914    1.0000 </r>
       <r>  -12.5161    1.0000 </r>
       <r>  -12.4331    1.0000 </r>
       <r>  -12.3191    1.0000 </r>
       <r>  -12.2914    1.0000 </r>
       <r>  -12.2053    1.0000 </r>
       <r>  -12.0336    1.0000 </r>
       <r>  -11.5292    1.0000 </r>
       <r>  -11.4277    1.0000 </r>
       <r>  -11.2919    1.0000 </r>
       <r>  -11.1236    1.0000 </r>
       <r>  -11.0897    1.0000 </r>
       <r>  -11.0520    1.0000 </r>
       <r>  -10.7628    1.0000 </r>
       <r>  -10.6553    1.0000 </r>
       <r>  -10.5124    1.0000 </r>
       <r>  -10.3881    1.0000 </r>
       <r>  -10.0926    1.0000 </r>
       <r>  -10.0487    1.0000 </r>
       <r>   -9.7923    1.0000 </r>
       <r>   -9.7269    1.0000 </r>
       <r>   -9.6910    1.0000 </r>
       <r>   -9.5570    1.0000 </r>
       <r>   -9.4649    1.0000 </r>
       <r>   -8.9890    1.0000 </r>
       <r>   -8.7534    1.0000 </r>
       <r>   -8.3594    1.0000 </r>
       <r>   -7.3797    1.0000 </r>
       <r>   -7.2603    1.0000 </r>
       <r>   -7.1081    1.0000 </r>
       <r>   -5.7031    0.0000 </r>
       <r>   -4.9833    0.0000 </r>
       <r>   -4.9446    0.0000 </r>
       <r>   -4.3395    0.0000 </r>
       <r>   -4.1293    0.0000 </r>
       <r>   -4.0887    0.0000 </r>
       <r>   -3.9513    0.0000 </r>
       <r>   -3.8275    0.0000 </r>
       <r>   -3.5114    0.0000 </r>
       <r>   -3.4569    0.0000 </r>
       <r>   -3.1394    0.0000 </r>
       <r>   -2.8594    0.0000 </r>
       <r>   -2.7101    0.0000 </r>
       <r>   -1.9624    0.0000 </r>
       <r>   -1.6950    0.0000 </r>
       <r>   -1.5661    0.0000 </r>
       <r>   -1.3729    0.0000 </r>
       <r>   -1.2821    0.0000 </r>
       <r>   -1.2420    0.0000 </r>
       <r>   -1.1806    0.0000 </r>
       <r>   -0.9863    0.0000 </r>
       <r>   -0.8633    0.0000 </r>
       <r>   -0.7826    0.0000 </r>
       <r>   -0.6734    0.0000 </r>
       <r>   -0.5842    0.0000 </r>
       <r>   -0.5217    0.0000 </r>
       <r>   -0.5052    0.0000 </r>
       <r>   -0.4111    0.0000 </r>
       <r>   -0.3444    0.0000 </r>
       <r>   -0.2575    0.0000 </r>
       <r>   -0.1769    0.0000 </r>
       <r>   -0.0638    0.0000 </r>
       <r>    0.0594    0.0000 </r>
       <r>    0.1166    0.0000 </r>
       <r>    0.1811    0.0000 </r>
       <r>    0.2707    0.0000 </r>
       <r>    0.2782    0.0000 </r>
       <r>    0.3245    0.0000 </r>
       <r>    0.3746    0.0000 </r>
       <r>    0.4090    0.0000 </r>
       <r>    0.4492    0.0000 </r>
       <r>    0.5279    0.0000 </r>
       <r>    0.6178    0.0000 </r>
       <r>    0.6589    0.0000 </r>
       <r>    0.6922    0.0000 </r>
      </set>
     </set>
    </set>
   </array>
  </eigenvalues>
  <separator name="orbital magnetization" >
   <v name="MAGDIPOLOUT">      0.00000000      0.00000000      0.00000000</v>
  </separator>
  <dos>
   <i name="efermi">     -6.99046433 </i>
   <total>
    <array>
     <dimension dim="1">gridpoints</dimension>
     <dimension dim="2">spin</dimension>
     <field>energy</field>
     <field>total</field>
     <field>integrated</field>
     <set>
      <set comment="spin 1">
       <r>   -51.5480     0.0000     0.0000 </r>
       <r>   -51.3656     0.0000     0.0000 </r>
       <r>   -51.1832     0.0000     0.0000 </r>
       <r>   -51.0007     0.0000     0.0000 </r>
       <r>   -50.8183     0.0000     0.0000 </r>
       <r>   -50.6359     0.0000     0.0000 </r>
       <r>   -50.4535     0.0000     0.0000 </r>
       <r>   -50.2710     0.0000     0.0000 </r>
       <r>   -50.0886     0.0000     0.0000 </r>
       <r>   -49.9062     0.0000     0.0000 </r>
       <r>   -49.7238     0.0000     0.0000 </r>
       <r>   -49.5413     0.0000     0.0000 </r>
       <r>   -49.3589     0.0000     0.0000 </r>
       <r>   -49.1765     0.0000     0.0000 </r>
       <r>   -48.9941    10.9633     2.0000 </r>
       <r>   -48.8116     0.0000     4.0000 </r>
       <r>   -48.6292    10.9633     6.0000 </r>
       <r>   -48.4468     0.0000     6.0000 </r>
       <r>   -48.2643     0.0000     6.0000 </r>
       <r>   -48.0819     0.0000     6.0000 </r>
       <r>   -47.8995     0.0000     6.0000 </r>
       <r>   -47.7171     0.0000     6.0000 </r>
       <r>   -47.5346     0.0000     6.0000 </r>
       <r>   -47.3522     0.0000     6.0000 </r>
       <r>   -47.1698     0.0000     6.0000 </r>
       <r>   -46.9874     0.0000     6.0000 </r>
       <r>   -46.8049     0.0000     6.0000 </r>
       <r>   -46.6225     0.0000     6.0000 </r>
       <r>   -46.4401     0.0000     6.0000 </r>
       <r>   -46.2577     0.0000     6.0000 </r>
       <r>   -46.0752     0.0000     6.0000 </r>
       <r>   -45.8928     0.0000     6.0000 </r>
       <r>   -45.7104     0.0000     6.0000 </r>
       <r>   -45.5280     0.0000     6.0000 </r>
       <r>   -45.3455     0.0000     6.0000 </r>
       <r>   -45.1631     0.0000     6.0000 </r>
       <r>   -44.9807     0.0000     6.0000 </r>
       <r>   -44.7983     0.0000     6.0000 </r>
       <r>   -44.6158     0.0000     6.0000 </r>
       <r>   -44.4334     0.0000     6.0000 </r>
       <r>   -44.2510     0.0000     6.0000 </r>
       <r>   -44.0686     0.0000     6.0000 </r>
       <r>   -43.8861     0.0000     6.0000 </r>
       <r>   -43.7037     0.0000     6.0000 </r>
       <r>   -43.5213     0.0000     6.0000 </r>
       <r>   -43.3388     0.0000     6.0000 </r>
       <r>   -43.1564     0.0000     6.0000 </r>
       <r>   -42.9740     0.0000     6.0000 </r>
       <r>   -42.7916     0.0000     6.0000 </r>
       <r>   -42.6091     0.0000     6.0000 </r>
       <r>   -42.4267     0.0000     6.0000 </r>
       <r>   -42.2443     0.0000     6.0000 </r>
       <r>   -42.0619     0.0000     6.0000 </r>
       <r>   -41.8794     0.0000     6.0000 </r>
       <r>   -41.6970     0.0000     6.0000 </r>
       <r>   -41.5146     0.0000     6.0000 </r>
       <r>   -41.3322     0.0000     6.0000 </r>
       <r>   -41.1497     0.0000     6.0000 </r>
       <r>   -40.9673     0.0000     6.0000 </r>
       <r>   -40.7849     0.0000     6.0000 </r>
       <r>   -40.6025     0.0000     6.0000 </r>
       <r>   -40.4200     0.0000     6.0000 </r>
       <r>   -40.2376     0.0000     6.0000 </r>
       <r>   -40.0552     0.0000     6.0000 </r>
       <r>   -39.8728     0.0000     6.0000 </r>
       <r>   -39.6903     0.0000     6.0000 </r>
       <r>   -39.5079     0.0000     6.0000 </r>
       <r>   -39.3255     0.0000     6.0000 </r>
       <r>   -39.1430     0.0000     6.0000 </r>
       <r>   -38.9606     0.0000     6.0000 </r>
       <r>   -38.7782     0.0000     6.0000 </r>
       <r>   -38.5958     0.0000     6.0000 </r>
       <r>   -38.4133     0.0000     6.0000 </r>
       <r>   -38.2309     0.0000     6.0000 </r>
       <r>   -38.0485     0.0000     6.0000 </r>
       <r>   -37.8661     0.0000     6.0000 </r>
       <r>   -37.6836     0.0000     6.0000 </r>
       <r>   -37.5012     0.0000     6.0000 </r>
       <r>   -37.3188     0.0000     6.0000 </r>
       <r>   -37.1364     0.0000     6.0000 </r>
       <r>   -36.9539     0.0000     6.0000 </r>
       <r>   -36.7715     0.0000     6.0000 </r>
       <r>   -36.5891     0.0000     6.0000 </r>
       <r>   -36.4067     0.0000     6.0000 </r>
       <r>   -36.2242     0.0000     6.0000 </r>
       <r>   -36.0418     0.0000     6.0000 </r>
       <r>   -35.8594     0.0000     6.0000 </r>
       <r>   -35.6770     0.0000     6.0000 </r>
       <r>   -35.4945     0.0000     6.0000 </r>
       <r>   -35.3121     0.0000     6.0000 </r>
       <r>   -35.1297     0.0000     6.0000 </r>
       <r>   -34.9473     0.0000     6.0000 </r>
       <r>   -34.7648     0.0000     6.0000 </r>
       <r>   -34.5824     0.0000     6.0000 </r>
       <r>   -34.4000     0.0000     6.0000 </r>
       <r>   -34.2175     0.0000     6.0000 </r>
       <r>   -34.0351     0.0000     6.0000 </r>
       <r>   -33.8527     0.0000     6.0000 </r>
       <r>   -33.6703     0.0000     6.0000 </r>
       <r>   -33.4878     0.0000     6.0000 </r>
       <r>   -33.3054     0.0000     6.0000 </r>
       <r>   -33.1230     0.0000     6.0000 </r>
       <r>   -32.9406     0.0000     6.0000 </r>
       <r>   -32.7581     0.0000     6.0000 </r>
       <r>   -32.5757     0.0000     6.0000 </r>
       <r>   -32.3933     0.0000     6.0000 </r>
       <r>   -32.2109     0.0000     6.0000 </r>
       <r>   -32.0284     0.0000     6.0000 </r>
       <r>   -31.8460     0.0000     6.0000 </r>
       <r>   -31.6636     0.0000     6.0000 </r>
       <r>   -31.4812     0.0000     6.0000 </r>
       <r>   -31.2987     0.0000     6.0000 </r>
       <r>   -31.1163     0.0000     6.0000 </r>
       <r>   -30.9339     0.0000     6.0000 </r>
       <r>   -30.7515     0.0000     6.0000 </r>
       <r>   -30.5690     0.0000     6.0000 </r>
       <r>   -30.3866     0.0000     6.0000 </r>
       <r>   -30.2042     0.0000     6.0000 </r>
       <r>   -30.0217     0.0000     6.0000 </r>
       <r>   -29.8393     0.0000     6.0000 </r>
       <r>   -29.6569     0.0000     6.0000 </r>
       <r>   -29.4745     0.0000     6.0000 </r>
       <r>   -29.2920     0.0000     6.0000 </r>
       <r>   -29.1096    10.9633     8.0000 </r>
       <r>   -28.9272     0.0000     8.0000 </r>
       <r>   -28.7448     0.0000     8.0000 </r>
       <r>   -28.5623     0.0000     8.0000 </r>
       <r>   -28.3799     0.0000     8.0000 </r>
       <r>   -28.1975     0.0000     8.0000 </r>
       <r>   -28.0151     0.0000     8.0000 </r>
       <r>   -27.8326     0.0000     8.0000 </r>
       <r>   -27.6502     0.0000     8.0000 </r>
       <r>   -27.4678    10.9633    10.0000 </r>
       <r>   -27.2854     0.0000    10.0000 </r>
       <r>   -27.1029     0.0000    10.0000 </r>
       <r>   -26.9205     0.0000    10.0000 </r>
       <r>   -26.7381    10.9633    12.0000 </r>
       <r>   -26.5557    10.9633    14.0000 </r>
       <r>   -26.3732     0.0000    14.0000 </r>
       <r>   -26.1908     0.1703    14.0311 </r>
       <r>   -26.0084     0.0000    18.0000 </r>
       <r>   -25.8259     0.0000    18.0000 </r>
       <r>   -25.6435     0.0000    18.0000 </r>
       <r>   -25.4611     0.0000    18.0000 </r>
       <r>   -25.2787     0.0000    18.0000 </r>
       <r>   -25.0962     0.0000    18.0000 </r>
       <r>   -24.9138     0.0000    18.0000 </r>
       <r>   -24.7314     0.0000    18.0000 </r>
       <r>   -24.5490     0.0000    18.0000 </r>
       <r>   -24.3665     0.0000    18.0000 </r>
       <r>   -24.1841     0.0000    18.0000 </r>
       <r>   -24.0017     2.3164    18.4226 </r>
       <r>   -23.8193     0.0000    20.0000 </r>
       <r>   -23.6368     0.0000    20.0000 </r>
       <r>   -23.4544     0.0000    20.0000 </r>
       <r>   -23.2720     0.0000    20.0000 </r>
       <r>   -23.0896     0.0000    20.0000 </r>
       <r>   -22.9071    10.9633    22.0000 </r>
       <r>   -22.7247     0.0000    22.0000 </r>
       <r>   -22.5423     0.0078    22.0014 </r>
       <r>   -22.3599    10.9633    26.0000 </r>
       <r>   -22.1774     5.1211    28.9342 </r>
       <r>   -21.9950    10.9633    32.0000 </r>
       <r>   -21.8126     0.0000    32.0000 </r>
       <r>   -21.6302     0.0000    32.0000 </r>
       <r>   -21.4477    10.9633    34.0000 </r>
       <r>   -21.2653     0.0000    34.0000 </r>
       <r>   -21.0829    10.9633    36.0000 </r>
       <r>   -20.9004     0.0000    36.0000 </r>
       <r>   -20.7180    10.9633    38.0000 </r>
       <r>   -20.5356     0.0000    38.0000 </r>
       <r>   -20.3532     0.0000    38.0000 </r>
       <r>   -20.1707     0.0000    38.0000 </r>
       <r>   -19.9883     0.0000    38.0000 </r>
       <r>   -19.8059     0.0000    38.0000 </r>
       <r>   -19.6235     0.0000    38.0000 </r>
       <r>   -19.4410     0.0000    40.0000 </r>
       <r>   -19.2586    10.9632    42.0000 </r>
       <r>   -19.0762     0.0000    42.0000 </r>
       <r>   -18.8938     0.0000    42.0000 </r>
       <r>   -18.7113     0.0010    42.0002 </r>
       <r>   -18.5289     0.0000    44.0000 </r>
       <r>   -18.3465    10.9633    46.0000 </r>
       <r>   -18.1641     0.2877    46.0525 </r>
       <r>   -17.9816     0.0000    48.0000 </r>
       <r>   -17.7992    10.9625    51.9999 </r>
       <r>   -17.6168    10.9630    53.9999 </r>
       <r>   -17.4344     0.0000    56.0000 </r>
       <r>   -17.2519    10.9364    57.9951 </r>
       <r>   -17.0695     0.0000    58.0000 </r>
       <r>   -16.8871     0.0000    58.0000 </r>
       <r>   -16.7046     0.0000    60.0000 </r>
       <r>   -16.5222    10.9633    62.0000 </r>
       <r>   -16.3398     0.0000    62.0000 </r>
       <r>   -16.1574     0.0000    62.0000 </r>
       <r>   -15.9749     0.0000    62.0000 </r>
       <r>   -15.7925    10.9633    64.0000 </r>
       <r>   -15.6101    10.6903    67.9502 </r>
       <r>   -15.4277     0.0000    68.0000 </r>
       <r>   -15.2452    10.9633    70.0000 </r>
       <r>   -15.0628     0.0000    70.0000 </r>
       <r>   -14.8804     0.0000    70.0000 </r>
       <r>   -14.6980    21.4180    73.9072 </r>
       <r>   -14.5155     0.0000    76.0000 </r>
       <r>   -14.3331    10.9325    77.9944 </r>
       <r>   -14.1507     0.0000    78.0000 </r>
       <r>   -13.9683    10.9633    84.0000 </r>
       <r>   -13.7858    10.9637    86.0001 </r>
       <r>   -13.6034     0.0000    90.0000 </r>
       <r>   -13.4210    10.9633    94.0000 </r>
       <r>   -13.2386    10.9631    98.0000 </r>
       <r>   -13.0561     0.0000   100.0000 </r>
       <r>   -12.8737    10.6656   101.9457 </r>
       <r>   -12.6913    16.5203   107.0137 </r>
       <r>   -12.5089     9.3002   109.6966 </r>
       <r>   -12.3264     1.6329   112.2979 </r>
       <r>   -12.1440    10.9633   118.0000 </r>
       <r>   -11.9616    10.9633   120.0000 </r>
       <r>   -11.7791     0.0000   120.0000 </r>
       <r>   -11.5967     0.0000   120.0000 </r>
       <r>   -11.4143    10.6428   123.9415 </r>
       <r>   -11.2319    10.9633   126.0000 </r>
       <r>   -11.0494    28.9465   131.2806 </r>
       <r>   -10.8670     0.0000   132.0000 </r>
       <r>   -10.6846    10.9635   134.0000 </r>
       <r>   -10.5022    10.1582   137.8531 </r>
       <r>   -10.3197    10.9633   140.0000 </r>
       <r>   -10.1373     0.0000   140.0000 </r>
       <r>    -9.9549     0.0000   144.0000 </r>
       <r>    -9.7725    10.9358   145.9950 </r>
       <r>    -9.5900     0.0000   150.0000 </r>
       <r>    -9.4076    10.9633   154.0000 </r>
       <r>    -9.2252     0.0000   154.0000 </r>
       <r>    -9.0428     0.0000   154.0000 </r>
       <r>    -8.8603     0.0000   156.0000 </r>
       <r>    -8.6779    10.9633   158.0000 </r>
       <r>    -8.4955     0.0000   158.0000 </r>
       <r>    -8.3131    10.9633   160.0000 </r>
       <r>    -8.1306     0.0000   160.0000 </r>
       <r>    -7.9482     0.0000   160.0000 </r>
       <r>    -7.7658     0.0000   160.0000 </r>
       <r>    -7.5833     0.0000   160.0000 </r>
       <r>    -7.4009     0.0144   160.0026 </r>
       <r>    -7.2185    10.9633   164.0000 </r>
       <r>    -7.0361    10.9633   166.0000 </r>
       <r>    -6.8536     0.0000   166.0000 </r>
       <r>    -6.6712     0.0000   166.0000 </r>
       <r>    -6.4888     0.0000   166.0000 </r>
       <r>    -6.3064     0.0000   166.0000 </r>
       <r>    -6.1239     0.0000   166.0000 </r>
       <r>    -5.9415     0.0000   166.0000 </r>
       <r>    -5.7591     0.0000   166.0000 </r>
       <r>    -5.5767     0.0000   168.0000 </r>
       <r>    -5.3942     0.0000   168.0000 </r>
       <r>    -5.2118     0.0000   168.0000 </r>
       <r>    -5.0294     0.0000   168.0000 </r>
       <r>    -4.8470     0.0000   172.0000 </r>
       <r>    -4.6645     0.0000   172.0000 </r>
       <r>    -4.4821     0.0000   172.0000 </r>
       <r>    -4.2997    10.9633   174.0000 </r>
       <r>    -4.1173    10.4852   175.9128 </r>
       <r>    -3.9348    10.8542   179.9801 </r>
       <r>    -3.7524    10.9633   182.0000 </r>
       <r>    -3.5700     0.0000   182.0000 </r>
       <r>    -3.3876    10.9633   186.0000 </r>
       <r>    -3.2051     0.0000   186.0000 </r>
       <r>    -3.0227     0.0000   188.0000 </r>
       <r>    -2.8403    10.9259   189.9932 </r>
       <r>    -2.6578    10.9633   192.0000 </r>
       <r>    -2.4754     0.0000   192.0000 </r>
       <r>    -2.2930     0.0000   192.0000 </r>
       <r>    -2.1106     0.0000   192.0000 </r>
       <r>    -1.9281    10.9633   194.0000 </r>
       <r>    -1.7457     0.0000   194.0000 </r>
       <r>    -1.5633     7.1608   197.3063 </r>
       <r>    -1.3809     1.4191   198.2589 </r>
       <r>    -1.1984    11.0261   204.0114 </r>
       <r>    -1.0160     0.0001   206.0000 </r>
       <r>    -0.8336    10.9632   210.0000 </r>
       <r>    -0.6512    10.9543   213.9983 </r>
       <r>    -0.4687    21.9267   220.0000 </r>
       <r>    -0.2863    10.9636   224.0000 </r>
       <r>    -0.1039    10.9633   228.0000 </r>
       <r>     0.0785    10.9256   231.9931 </r>
       <r>     0.2610    11.9584   236.1815 </r>
       <r>     0.4434    24.1945   246.4137 </r>
       <r>     0.6258     9.5613   251.7442 </r>
       <r>     0.8082     0.0000   256.0000 </r>
       <r>     0.9907     0.0000   256.0000 </r>
       <r>     1.1731     0.0000   256.0000 </r>
       <r>     1.3555     0.0000   256.0000 </r>
       <r>     1.5380     0.0000   256.0000 </r>
       <r>     1.7204     0.0000   256.0000 </r>
       <r>     1.9028     0.0000   256.0000 </r>
       <r>     2.0852     0.0000   256.0000 </r>
       <r>     2.2677     0.0000   256.0000 </r>
       <r>     2.4501     0.0000   256.0000 </r>
       <r>     2.6325     0.0000   256.0000 </r>
       <r>     2.8149     0.0000   256.0000 </r>
       <r>     2.9974     0.0000   256.0000 </r>
       <r>     3.1798     0.0000   256.0000 </r>
      </set>
      <set comment="spin 2">
       <r>   -51.5480     0.0000     0.0000 </r>
       <r>   -51.3656     0.0000     0.0000 </r>
       <r>   -51.1832     0.0000     0.0000 </r>
       <r>   -51.0007     0.0000     0.0000 </r>
       <r>   -50.8183     0.0000     0.0000 </r>
       <r>   -50.6359     0.0000     0.0000 </r>
       <r>   -50.4535     0.0000     0.0000 </r>
       <r>   -50.2710     0.0000     0.0000 </r>
       <r>   -50.0886     0.0000     0.0000 </r>
       <r>   -49.9062     0.0000     0.0000 </r>
       <r>   -49.7238     0.0000     0.0000 </r>
       <r>   -49.5413     0.0000     0.0000 </r>
       <r>   -49.3589     0.0000     0.0000 </r>
       <r>   -49.1765     0.0000     0.0000 </r>
       <r>   -48.9941    10.9633     2.0000 </r>
       <r>   -48.8116     0.0000     4.0000 </r>
       <r>   -48.6292    10.9633     6.0000 </r>
       <r>   -48.4468     0.0000     6.0000 </r>
       <r>   -48.2643     0.0000     6.0000 </r>
       <r>   -48.0819     0.0000     6.0000 </r>
       <r>   -47.8995     0.0000     6.0000 </r>
       <r>   -47.7171     0.0000     6.0000 </r>
       <r>   -47.5346     0.0000     6.0000 </r>
       <r>   -47.3522     0.0000     6.0000 </r>
       <r>   -47.1698     0.0000     6.0000 </r>
       <r>   -46.9874     0.0000     6.0000 </r>
       <r>   -46.8049     0.0000     6.0000 </r>
       <r>   -46.6225     0.0000     6.0000 </r>
       <r>   -46.4401     0.0000     6.0000 </r>
       <r>   -46.2577     0.0000     6.0000 </r>
       <r>   -46.0752     0.0000     6.0000 </r>
       <r>   -45.8928     0.0000     6.0000 </r>
       <r>   -45.7104     0.0000     6.0000 </r>
       <r>   -45.5280     0.0000     6.0000 </r>
       <r>   -45.3455     0.0000     6.0000 </r>
       <r>   -45.1631     0.0000     6.0000 </r>
       <r>   -44.9807     0.0000     6.0000 </r>
       <r>   -44.7983     0.0000     6.0000 </r>
       <r>   -44.6158     0.0000     6.0000 </r>
       <r>   -44.4334     0.0000     6.0000 </r>
       <r>   -44.2510     0.0000     6.0000 </r>
       <r>   -44.0686     0.0000     6.0000 </r>
       <r>   -43.8861     0.0000     6.0000 </r>
       <r>   -43.7037     0.0000     6.0000 </r>
       <r>   -43.5213     0.0000     6.0000 </r>
       <r>   -43.3388     0.0000     6.0000 </r>
       <r>   -43.1564     0.0000     6.0000 </r>
       <r>   -42.9740     0.0000     6.0000 </r>
       <r>   -42.7916     0.0000     6.0000 </r>
       <r>   -42.6091     0.0000     6.0000 </r>
       <r>   -42.4267     0.0000     6.0000 </r>
       <r>   -42.2443     0.0000     6.0000 </r>
       <r>   -42.0619     0.0000     6.0000 </r>
       <r>   -41.8794     0.0000     6.0000 </r>
       <r>   -41.6970     0.0000     6.0000 </r>
       <r>   -41.5146     0.0000     6.0000 </r>
       <r>   -41.3322     0.0000     6.0000 </r>
       <r>   -41.1497     0.0000     6.0000 </r>
       <r>   -40.9673     0.0000     6.0000 </r>
       <r>   -40.7849     0.0000     6.0000 </r>
       <r>   -40.6025     0.0000     6.0000 </r>
       <r>   -40.4200     0.0000     6.0000 </r>
       <r>   -40.2376     0.0000     6.0000 </r>
       <r>   -40.0552     0.0000     6.0000 </r>
       <r>   -39.8728     0.0000     6.0000 </r>
       <r>   -39.6903     0.0000     6.0000 </r>
       <r>   -39.5079     0.0000     6.0000 </r>
       <r>   -39.3255     0.0000     6.0000 </r>
       <r>   -39.1430     0.0000     6.0000 </r>
       <r>   -38.9606     0.0000     6.0000 </r>
       <r>   -38.7782     0.0000     6.0000 </r>
       <r>   -38.5958     0.0000     6.0000 </r>
       <r>   -38.4133     0.0000     6.0000 </r>
       <r>   -38.2309     0.0000     6.0000 </r>
       <r>   -38.0485     0.0000     6.0000 </r>
       <r>   -37.8661     0.0000     6.0000 </r>
       <r>   -37.6836     0.0000     6.0000 </r>
       <r>   -37.5012     0.0000     6.0000 </r>
       <r>   -37.3188     0.0000     6.0000 </r>
       <r>   -37.1364     0.0000     6.0000 </r>
       <r>   -36.9539     0.0000     6.0000 </r>
       <r>   -36.7715     0.0000     6.0000 </r>
       <r>   -36.5891     0.0000     6.0000 </r>
       <r>   -36.4067     0.0000     6.0000 </r>
       <r>   -36.2242     0.0000     6.0000 </r>
       <r>   -36.0418     0.0000     6.0000 </r>
       <r>   -35.8594     0.0000     6.0000 </r>
       <r>   -35.6770     0.0000     6.0000 </r>
       <r>   -35.4945     0.0000     6.0000 </r>
       <r>   -35.3121     0.0000     6.0000 </r>
       <r>   -35.1297     0.0000     6.0000 </r>
       <r>   -34.9473     0.0000     6.0000 </r>
       <r>   -34.7648     0.0000     6.0000 </r>
       <r>   -34.5824     0.0000     6.0000 </r>
       <r>   -34.4000     0.0000     6.0000 </r>
       <r>   -34.2175     0.0000     6.0000 </r>
       <r>   -34.0351     0.0000     6.0000 </r>
       <r>   -33.8527     0.0000     6.0000 </r>
       <r>   -33.6703     0.0000     6.0000 </r>
       <r>   -33.4878     0.0000     6.0000 </r>
       <r>   -33.3054     0.0000     6.0000 </r>
       <r>   -33.1230     0.0000     6.0000 </r>
       <r>   -32.9406     0.0000     6.0000 </r>
       <r>   -32.7581     0.0000     6.0000 </r>
       <r>   -32.5757     0.0000     6.0000 </r>
       <r>   -32.3933     0.0000     6.0000 </r>
       <r>   -32.2109     0.0000     6.0000 </r>
       <r>   -32.0284     0.0000     6.0000 </r>
       <r>   -31.8460     0.0000     6.0000 </r>
       <r>   -31.6636     0.0000     6.0000 </r>
       <r>   -31.4812     0.0000     6.0000 </r>
       <r>   -31.2987     0.0000     6.0000 </r>
       <r>   -31.1163     0.0000     6.0000 </r>
       <r>   -30.9339     0.0000     6.0000 </r>
       <r>   -30.7515     0.0000     6.0000 </r>
       <r>   -30.5690     0.0000     6.0000 </r>
       <r>   -30.3866     0.0000     6.0000 </r>
       <r>   -30.2042     0.0000     6.0000 </r>
       <r>   -30.0217     0.0000     6.0000 </r>
       <r>   -29.8393     0.0000     6.0000 </r>
       <r>   -29.6569     0.0000     6.0000 </r>
       <r>   -29.4745     0.0000     6.0000 </r>
       <r>   -29.2920     0.0000     6.0000 </r>
       <r>   -29.1096    10.9633     8.0000 </r>
       <r>   -28.9272     0.0000     8.0000 </r>
       <r>   -28.7448     0.0000     8.0000 </r>
       <r>   -28.5623     0.0000     8.0000 </r>
       <r>   -28.3799     0.0000     8.0000 </r>
       <r>   -28.1975     0.0000     8.0000 </r>
       <r>   -28.0151     0.0000     8.0000 </r>
       <r>   -27.8326     0.0000     8.0000 </r>
       <r>   -27.6502     0.0000     8.0000 </r>
       <r>   -27.4678    10.9633    10.0000 </r>
       <r>   -27.2854     0.0000    10.0000 </r>
       <r>   -27.1029     0.0000    10.0000 </r>
       <r>   -26.9205     0.0000    10.0000 </r>
       <r>   -26.7381    10.9633    12.0000 </r>
       <r>   -26.5557    10.9633    14.0000 </r>
       <r>   -26.3732     0.0000    14.0000 </r>
       <r>   -26.1908     0.1703    14.0311 </r>
       <r>   -26.0084     0.0000    18.0000 </r>
       <r>   -25.8259     0.0000    18.0000 </r>
       <r>   -25.6435     0.0000    18.0000 </r>
       <r>   -25.4611     0.0000    18.0000 </r>
       <r>   -25.2787     0.0000    18.0000 </r>
       <r>   -25.0962     0.0000    18.0000 </r>
       <r>   -24.9138     0.0000    18.0000 </r>
       <r>   -24.7314     0.0000    18.0000 </r>
       <r>   -24.5490     0.0000    18.0000 </r>
       <r>   -24.3665     0.0000    18.0000 </r>
       <r>   -24.1841     0.0000    18.0000 </r>
       <r>   -24.0017     2.3164    18.4226 </r>
       <r>   -23.8193     0.0000    20.0000 </r>
       <r>   -23.6368     0.0000    20.0000 </r>
       <r>   -23.4544     0.0000    20.0000 </r>
       <r>   -23.2720     0.0000    20.0000 </r>
       <r>   -23.0896     0.0000    20.0000 </r>
       <r>   -22.9071    10.9633    22.0000 </r>
       <r>   -22.7247     0.0000    22.0000 </r>
       <r>   -22.5423     0.0078    22.0014 </r>
       <r>   -22.3599    10.9633    26.0000 </r>
       <r>   -22.1774     5.1211    28.9342 </r>
       <r>   -21.9950    10.9633    32.0000 </r>
       <r>   -21.8126     0.0000    32.0000 </r>
       <r>   -21.6302     0.0000    32.0000 </r>
       <r>   -21.4477    10.9633    34.0000 </r>
       <r>   -21.2653     0.0000    34.0000 </r>
       <r>   -21.0829    10.9633    36.0000 </r>
       <r>   -20.9004     0.0000    36.0000 </r>
       <r>   -20.7180    10.9633    38.0000 </r>
       <r>   -20.5356     0.0000    38.0000 </r>
       <r>   -20.3532     0.0000    38.0000 </r>
       <r>   -20.1707     0.0000    38.0000 </r>
       <r>   -19.9883     0.0000    38.0000 </r>
       <r>   -19.8059     0.0000    38.0000 </r>
       <r>   -19.6235     0.0000    38.0000 </r>
       <r>   -19.4410     0.0000    40.0000 </r>
       <r>   -19.2586    10.9632    42.0000 </r>
       <r>   -19.0762     0.0000    42.0000 </r>
       <r>   -18.8938     0.0000    42.0000 </r>
       <r>   -18.7113     0.0010    42.0002 </r>
       <r>   -18.5289     0.0000    44.0000 </r>
       <r>   -18.3465    10.9633    46.0000 </r>
       <r>   -18.1641     0.2877    46.0525 </r>
       <r>   -17.9816     0.0000    48.0000 </r>
       <r>   -17.7992    10.9625    51.9999 </r>
       <r>   -17.6168    10.9630    53.9999 </r>
       <r>   -17.4344     0.0000    56.0000 </r>
       <r>   -17.2519    10.9364    57.9951 </r>
       <r>   -17.0695     0.0000    58.0000 </r>
       <r>   -16.8871     0.0000    58.0000 </r>
       <r>   -16.7046     0.0000    60.0000 </r>
       <r>   -16.5222    10.9633    62.0000 </r>
       <r>   -16.3398     0.0000    62.0000 </r>
       <r>   -16.1574     0.0000    62.0000 </r>
       <r>   -15.9749     0.0000    62.0000 </r>
       <r>   -15.7925    10.9633    64.0000 </r>
       <r>   -15.6101    10.6903    67.9502 </r>
       <r>   -15.4277     0.0000    68.0000 </r>
       <r>   -15.2452    10.9633    70.0000 </r>
       <r>   -15.0628     0.0000    70.0000 </r>
       <r>   -14.8804     0.0000    70.0000 </r>
       <r>   -14.6980    21.4180    73.9072 </r>
       <r>   -14.5155     0.0000    76.0000 </r>
       <r>   -14.3331    10.9325    77.9944 </r>
       <r>   -14.1507     0.0000    78.0000 </r>
       <r>   -13.9683    10.9633    84.0000 </r>
       <r>   -13.7858    10.9637    86.0001 </r>
       <r>   -13.6034     0.0000    90.0000 </r>
       <r>   -13.4210    10.9633    94.0000 </r>
       <r>   -13.2386    10.9631    98.0000 </r>
       <r>   -13.0561     0.0000   100.0000 </r>
       <r>   -12.8737    10.6656   101.9457 </r>
       <r>   -12.6913    16.5203   107.0137 </r>
       <r>   -12.5089     9.3002   109.6966 </r>
       <r>   -12.3264     1.6329   112.2979 </r>
       <r>   -12.1440    10.9633   118.0000 </r>
       <r>   -11.9616    10.9633   120.0000 </r>
       <r>   -11.7791     0.0000   120.0000 </r>
       <r>   -11.5967     0.0000   120.0000 </r>
       <r>   -11.4143    10.6428   123.9415 </r>
       <r>   -11.2319    10.9633   126.0000 </r>
       <r>   -11.0494    28.9465   131.2806 </r>
       <r>   -10.8670     0.0000   132.0000 </r>
       <r>   -10.6846    10.9635   134.0000 </r>
       <r>   -10.5022    10.1581   137.8531 </r>
       <r>   -10.3197    10.9633   140.0000 </r>
       <r>   -10.1373     0.0000   140.0000 </r>
       <r>    -9.9549     0.0000   144.0000 </r>
       <r>    -9.7725    10.9358   145.9950 </r>
       <r>    -9.5900     0.0000   150.0000 </r>
       <r>    -9.4076    10.9633   154.0000 </r>
       <r>    -9.2252     0.0000   154.0000 </r>
       <r>    -9.0428     0.0000   154.0000 </r>
       <r>    -8.8603     0.0000   156.0000 </r>
       <r>    -8.6779    10.9633   158.0000 </r>
       <r>    -8.4955     0.0000   158.0000 </r>
       <r>    -8.3131    10.9633   160.0000 </r>
       <r>    -8.1306     0.0000   160.0000 </r>
       <r>    -7.9482     0.0000   160.0000 </r>
       <r>    -7.7658     0.0000   160.0000 </r>
       <r>    -7.5833     0.0000   160.0000 </r>
       <r>    -7.4009     0.0144   160.0026 </r>
       <r>    -7.2185    10.9633   164.0000 </r>
       <r>    -7.0361    10.9633   166.0000 </r>
       <r>    -6.8536     0.0000   166.0000 </r>
       <r>    -6.6712     0.0000   166.0000 </r>
       <r>    -6.4888     0.0000   166.0000 </r>
       <r>    -6.3064     0.0000   166.0000 </r>
       <r>    -6.1239     0.0000   166.0000 </r>
       <r>    -5.9415     0.0000   166.0000 </r>
       <r>    -5.7591     0.0000   166.0000 </r>
       <r>    -5.5767     0.0000   168.0000 </r>
       <r>    -5.3942     0.0000   168.0000 </r>
       <r>    -5.2118     0.0000   168.0000 </r>
       <r>    -5.0294     0.0000   168.0000 </r>
       <r>    -4.8470     0.0000   172.0000 </r>
       <r>    -4.6645     0.0000   172.0000 </r>
       <r>    -4.4821     0.0000   172.0000 </r>
       <r>    -4.2997    10.9633   174.0000 </r>
       <r>    -4.1173    10.4852   175.9128 </r>
       <r>    -3.9348    10.8542   179.9801 </r>
       <r>    -3.7524    10.9633   182.0000 </r>
       <r>    -3.5700     0.0000   182.0000 </r>
       <r>    -3.3876    10.9633   186.0000 </r>
       <r>    -3.2051     0.0000   186.0000 </r>
       <r>    -3.0227     0.0000   188.0000 </r>
       <r>    -2.8403    10.9259   189.9932 </r>
       <r>    -2.6578    10.9633   192.0000 </r>
       <r>    -2.4754     0.0000   192.0000 </r>
       <r>    -2.2930     0.0000   192.0000 </r>
       <r>    -2.1106     0.0000   192.0000 </r>
       <r>    -1.9281    10.9633   194.0000 </r>
       <r>    -1.7457     0.0000   194.0000 </r>
       <r>    -1.5633     7.1613   197.3064 </r>
       <r>    -1.3809     1.4189   198.2589 </r>
       <r>    -1.1984    11.0261   204.0114 </r>
       <r>    -1.0160     0.0001   206.0000 </r>
       <r>    -0.8336    10.9632   210.0000 </r>
       <r>    -0.6512    10.9543   213.9983 </r>
       <r>    -0.4687    21.9267   220.0000 </r>
       <r>    -0.2863    10.9636   224.0000 </r>
       <r>    -0.1039    10.9633   228.0000 </r>
       <r>     0.0785    10.9256   231.9931 </r>
       <r>     0.2610    11.9587   236.1816 </r>
       <r>     0.4434    24.1987   246.4145 </r>
       <r>     0.6258     9.5656   251.7450 </r>
       <r>     0.8082     0.0000   256.0000 </r>
       <r>     0.9907     0.0000   256.0000 </r>
       <r>     1.1731     0.0000   256.0000 </r>
       <r>     1.3555     0.0000   256.0000 </r>
       <r>     1.5380     0.0000   256.0000 </r>
       <r>     1.7204     0.0000   256.0000 </r>
       <r>     1.9028     0.0000   256.0000 </r>
       <r>     2.0852     0.0000   256.0000 </r>
       <r>     2.2677     0.0000   256.0000 </r>
       <r>     2.4501     0.0000   256.0000 </r>
       <r>     2.6325     0.0000   256.0000 </r>
       <r>     2.8149     0.0000   256.0000 </r>
       <r>     2.9974     0.0000   256.0000 </r>
       <r>     3.1798     0.0000   256.0000 </r>
      </set>
     </set>
    </array>
   </total>
  </dos>
 </calculation>
 <structure name="finalpos" >
  <crystal>
   <varray name="basis" >
    <v>      20.00000000       0.00000000       0.00000000 </v>
    <v>       0.00000000      20.00000000       0.00000000 </v>
    <v>       0.00000000       0.00000000      20.00000000 </v>
   </varray>
   <i name="volume">   8000.00000000 </i>
   <varray name="rec_basis" >
    <v>       0.05000000       0.00000000       0.00000000 </v>
    <v>       0.00000000       0.05000000       0.00000000 </v>
    <v>       0.00000000       0.00000000       0.05000000 </v>
   </varray>
  </crystal>
  <varray name="positions" >
   <v>       0.30486503       0.39173492       0.48443166 </v>
   <v>       0.43793752       0.56561110       0.32757008 </v>
   <v>       0.45581208       0.52423376       0.38051465 </v>
   <v>       0.47372925       0.61530131       0.44986522 </v>
   <v>       0.45595175       0.65963312       0.39935201 </v>
   <v>       0.43785737       0.63472201       0.33675972 </v>
   <v>       0.52307882       0.32955005       0.67474498 </v>
   <v>       0.49710163       0.37190466       0.62618823 </v>
   <v>       0.60227374       0.41933300       0.60593616 </v>
   <v>       0.63096398       0.37761922       0.65422416 </v>
   <v>       0.73964927       0.52855915       0.53463181 </v>
   <v>       0.70082162       0.56612858       0.49044049 </v>
   <v>       0.63257913       0.55363620       0.48652424 </v>
   <v>       0.63952130       0.46927713       0.56732841 </v>
   <v>       0.70843899       0.47974495       0.57314689 </v>
   <v>       0.59134754       0.33224398       0.68903016 </v>
   <v>       0.36211554       0.48866484       0.56417415 </v>
   <v>       0.40790931       0.62211625       0.69058213 </v>
   <v>       0.47619960       0.62606623       0.67660612 </v>
   <v>       0.50295190       0.58590820       0.62668073 </v>
   <v>       0.39825425       0.53800137       0.60426081 </v>
   <v>       0.36904589       0.57756069       0.65398228 </v>
   <v>       0.37289802       0.40579857       0.48223443 </v>
   <v>       0.29334713       0.47671938       0.56830116 </v>
   <v>       0.26422003       0.42785518       0.52821594 </v>
   <v>       0.48989745       0.29510618       0.70074864 </v>
   <v>       0.61334240       0.29968355       0.72673159 </v>
   <v>       0.68424189       0.38076917       0.66478776 </v>
   <v>       0.54225374       0.36233861       0.46129841 </v>
   <v>       0.31579090       0.57306911       0.66420366 </v>
   <v>       0.44416348       0.37118871       0.61364770 </v>
   <v>       0.42392665       0.66833230       0.29622671 </v>
   <v>       0.45642762       0.71313270       0.40950260 </v>
   <v>       0.48809132       0.63358802       0.49907234 </v>
   <v>       0.56912778       0.41808713       0.41480476 </v>
   <v>       0.73767440       0.44963919       0.60776512 </v>
   <v>       0.72277620       0.60481012       0.45904817 </v>
   <v>       0.45570253       0.47012894       0.37468790 </v>
   <v>       0.40614333       0.37888556       0.44852541 </v>
   <v>       0.28443799       0.35306162       0.45202062 </v>
   <v>       0.79326502       0.53703787       0.53892527 </v>
   <v>       0.55589708       0.58769132       0.61440612 </v>
   <v>       0.42412006       0.54328620       0.27986105 </v>
   <v>       0.50894741       0.65984570       0.70400156 </v>
   <v>       0.26265982       0.50568523       0.60265428 </v>
   <v>       0.21072272       0.41813760       0.53105039 </v>
   <v>       0.60090654       0.58197914       0.45254259 </v>
   <v>       0.38544357       0.65296704       0.72941133 </v>
   <v>       0.47424490       0.54794204       0.44140236 </v>
   <v>       0.40180479       0.45306079       0.52108436 </v>
   <v>       0.53520702       0.41608490       0.59173240 </v>
   <v>       0.46544808       0.54254992       0.59041194 </v>
   <v>       0.60138410       0.50650621       0.52397638 </v>
   <v>       0.53073984       0.40562607       0.44215451 </v>
   <v>       0.50088568       0.48087016       0.51934246 </v>
  </varray>
  <varray name="selective"  type="logical" >
   <v type="logical" >  T  T  T </v>
   <v type="logical" >  T  T  T </v>
   <v type="logical" >  T  T  T </v>
   <v type="logical" >  T  T  T </v>
   <v type="logical" >  T  T  T </v>
   <v type="logical" >  T  T  T </v>
   <v type="logical" >  T  T  T </v>
   <v type="logical" >  T  T  T </v>
   <v type="logical" >  T  T  T </v>
   <v type="logical" >  T  T  T </v>
   <v type="logical" >  T  T  T </v>
   <v type="logical" >  T  T  T </v>
   <v type="logical" >  T  T  T </v>
   <v type="logical" >  T  T  T </v>
   <v type="logical" >  T  T  T </v>
   <v type="logical" >  T  T  T </v>
   <v type="logical" >  T  T  T </v>
   <v type="logical" >  T  T  T </v>
   <v type="logical" >  T  T  T </v>
   <v type="logical" >  T  T  T </v>
   <v type="logical" >  T  T  T </v>
   <v type="logical" >  T  T  T </v>
   <v type="logical" >  T  T  T </v>
   <v type="logical" >  T  T  T </v>
   <v type="logical" >  T  T  T </v>
   <v type="logical" >  T  T  T </v>
   <v type="logical" >  T  T  T </v>
   <v type="logical" >  T  T  T </v>
   <v type="logical" >  T  T  T </v>
   <v type="logical" >  T  T  T </v>
   <v type="logical" >  T  T  T </v>
   <v type="logical" >  T  T  T </v>
   <v type="logical" >  T  T  T </v>
   <v type="logical" >  T  T  T </v>
   <v type="logical" >  T  T  T </v>
   <v type="logical" >  T  T  T </v>
   <v type="logical" >  T  T  T </v>
   <v type="logical" >  T  T  T </v>
   <v type="logical" >  T  T  T </v>
   <v type="logical" >  T  T  T </v>
   <v type="logical" >  T  T  T </v>
   <v type="logical" >  T  T  T </v>
   <v type="logical" >  T  T  T </v>
   <v type="logical" >  T  T  T </v>
   <v type="logical" >  T  T  T </v>
   <v type="logical" >  T  T  T </v>
   <v type="logical" >  T  T  T </v>
   <v type="logical" >  T  T  T </v>
   <v type="logical" >  T  T  T </v>
   <v type="logical" >  T  T  T </v>
   <v type="logical" >  T  T  T </v>
   <v type="logical" >  T  T  T </v>
   <v type="logical" >  T  T  T </v>
   <v type="logical" >  T  T  T </v>
   <v type="logical" >  T  T  T </v>
  </varray>
  <nose>
   <v>      -3.00000000       0.00000000       0.00010000       0.00010000 </v>
  </nose>
 </structure>
</modeling>
