  55  55   0   0
  0.1454545E+03  0.2000000E-08  0.2000000E-08  0.2000000E-08  0.5000000E-15
  1.000000000000000E-004
  CAR 
 c2_oh2_ruthenium_mol                    
      3.13873878    -51.73397744  301     -7.05844098      1.00000000
    -51.734  0.0000E+00  0.0000E+00  0.0000E+00  0.0000E+00
    -51.551  0.0000E+00  0.0000E+00  0.0000E+00  0.0000E+00
    -51.368  0.0000E+00  0.0000E+00  0.0000E+00  0.0000E+00
    -51.185  0.0000E+00  0.0000E+00  0.0000E+00  0.0000E+00
    -51.002  0.0000E+00  0.0000E+00  0.0000E+00  0.0000E+00
    -50.819  0.0000E+00  0.0000E+00  0.0000E+00  0.0000E+00
    -50.637  0.0000E+00  0.0000E+00  0.0000E+00  0.0000E+00
    -50.454  0.0000E+00  0.0000E+00  0.0000E+00  0.0000E+00
    -50.271  0.0000E+00  0.0000E+00  0.0000E+00  0.0000E+00
    -50.088  0.0000E+00  0.0000E+00  0.0000E+00  0.0000E+00
    -49.905  0.0000E+00  0.0000E+00  0.0000E+00  0.0000E+00
    -49.722  0.0000E+00  0.0000E+00  0.0000E+00  0.0000E+00
    -49.539  0.0000E+00  0.0000E+00  0.0000E+00  0.0000E+00
    -49.356  0.0000E+00  0.0000E+00  0.0000E+00  0.0000E+00
    -49.173  0.1093E+02  0.1093E+02  0.2000E+01  0.2000E+01
    -48.990  0.0000E+00  0.0000E+00  0.4000E+01  0.4000E+01
    -48.807  0.1084E+02  0.1084E+02  0.5982E+01  0.5982E+01
    -48.625  0.0000E+00  0.0000E+00  0.6000E+01  0.6000E+01
    -48.442  0.0000E+00  0.0000E+00  0.6000E+01  0.6000E+01
    -48.259  0.0000E+00  0.0000E+00  0.6000E+01  0.6000E+01
    -48.076  0.0000E+00  0.0000E+00  0.6000E+01  0.6000E+01
    -47.893  0.0000E+00  0.0000E+00  0.6000E+01  0.6000E+01
    -47.710  0.0000E+00  0.0000E+00  0.6000E+01  0.6000E+01
    -47.527  0.0000E+00  0.0000E+00  0.6000E+01  0.6000E+01
    -47.344  0.0000E+00  0.0000E+00  0.6000E+01  0.6000E+01
    -47.161  0.0000E+00  0.0000E+00  0.6000E+01  0.6000E+01
    -46.978  0.0000E+00  0.0000E+00  0.6000E+01  0.6000E+01
    -46.795  0.0000E+00  0.0000E+00  0.6000E+01  0.6000E+01
    -46.613  0.0000E+00  0.0000E+00  0.6000E+01  0.6000E+01
    -46.430  0.0000E+00  0.0000E+00  0.6000E+01  0.6000E+01
    -46.247  0.0000E+00  0.0000E+00  0.6000E+01  0.6000E+01
    -46.064  0.0000E+00  0.0000E+00  0.6000E+01  0.6000E+01
    -45.881  0.0000E+00  0.0000E+00  0.6000E+01  0.6000E+01
    -45.698  0.0000E+00  0.0000E+00  0.6000E+01  0.6000E+01
    -45.515  0.0000E+00  0.0000E+00  0.6000E+01  0.6000E+01
    -45.332  0.0000E+00  0.0000E+00  0.6000E+01  0.6000E+01
    -45.149  0.0000E+00  0.0000E+00  0.6000E+01  0.6000E+01
    -44.966  0.0000E+00  0.0000E+00  0.6000E+01  0.6000E+01
    -44.783  0.0000E+00  0.0000E+00  0.6000E+01  0.6000E+01
    -44.601  0.0000E+00  0.0000E+00  0.6000E+01  0.6000E+01
    -44.418  0.0000E+00  0.0000E+00  0.6000E+01  0.6000E+01
    -44.235  0.0000E+00  0.0000E+00  0.6000E+01  0.6000E+01
    -44.052  0.0000E+00  0.0000E+00  0.6000E+01  0.6000E+01
    -43.869  0.0000E+00  0.0000E+00  0.6000E+01  0.6000E+01
    -43.686  0.0000E+00  0.0000E+00  0.6000E+01  0.6000E+01
    -43.503  0.0000E+00  0.0000E+00  0.6000E+01  0.6000E+01
    -43.320  0.0000E+00  0.0000E+00  0.6000E+01  0.6000E+01
    -43.137  0.0000E+00  0.0000E+00  0.6000E+01  0.6000E+01
    -42.954  0.0000E+00  0.0000E+00  0.6000E+01  0.6000E+01
    -42.771  0.0000E+00  0.0000E+00  0.6000E+01  0.6000E+01
    -42.589  0.0000E+00  0.0000E+00  0.6000E+01  0.6000E+01
    -42.406  0.0000E+00  0.0000E+00  0.6000E+01  0.6000E+01
    -42.223  0.0000E+00  0.0000E+00  0.6000E+01  0.6000E+01
    -42.040  0.0000E+00  0.0000E+00  0.6000E+01  0.6000E+01
    -41.857  0.0000E+00  0.0000E+00  0.6000E+01  0.6000E+01
    -41.674  0.0000E+00  0.0000E+00  0.6000E+01  0.6000E+01
    -41.491  0.0000E+00  0.0000E+00  0.6000E+01  0.6000E+01
    -41.308  0.0000E+00  0.0000E+00  0.6000E+01  0.6000E+01
    -41.125  0.0000E+00  0.0000E+00  0.6000E+01  0.6000E+01
    -40.942  0.0000E+00  0.0000E+00  0.6000E+01  0.6000E+01
    -40.759  0.0000E+00  0.0000E+00  0.6000E+01  0.6000E+01
    -40.577  0.0000E+00  0.0000E+00  0.6000E+01  0.6000E+01
    -40.394  0.0000E+00  0.0000E+00  0.6000E+01  0.6000E+01
    -40.211  0.0000E+00  0.0000E+00  0.6000E+01  0.6000E+01
    -40.028  0.0000E+00  0.0000E+00  0.6000E+01  0.6000E+01
    -39.845  0.0000E+00  0.0000E+00  0.6000E+01  0.6000E+01
    -39.662  0.0000E+00  0.0000E+00  0.6000E+01  0.6000E+01
    -39.479  0.0000E+00  0.0000E+00  0.6000E+01  0.6000E+01
    -39.296  0.0000E+00  0.0000E+00  0.6000E+01  0.6000E+01
    -39.113  0.0000E+00  0.0000E+00  0.6000E+01  0.6000E+01
    -38.930  0.0000E+00  0.0000E+00  0.6000E+01  0.6000E+01
    -38.747  0.0000E+00  0.0000E+00  0.6000E+01  0.6000E+01
    -38.565  0.0000E+00  0.0000E+00  0.6000E+01  0.6000E+01
    -38.382  0.0000E+00  0.0000E+00  0.6000E+01  0.6000E+01
    -38.199  0.0000E+00  0.0000E+00  0.6000E+01  0.6000E+01
    -38.016  0.0000E+00  0.0000E+00  0.6000E+01  0.6000E+01
    -37.833  0.0000E+00  0.0000E+00  0.6000E+01  0.6000E+01
    -37.650  0.0000E+00  0.0000E+00  0.6000E+01  0.6000E+01
    -37.467  0.0000E+00  0.0000E+00  0.6000E+01  0.6000E+01
    -37.284  0.0000E+00  0.0000E+00  0.6000E+01  0.6000E+01
    -37.101  0.0000E+00  0.0000E+00  0.6000E+01  0.6000E+01
    -36.918  0.0000E+00  0.0000E+00  0.6000E+01  0.6000E+01
    -36.735  0.0000E+00  0.0000E+00  0.6000E+01  0.6000E+01
    -36.553  0.0000E+00  0.0000E+00  0.6000E+01  0.6000E+01
    -36.370  0.0000E+00  0.0000E+00  0.6000E+01  0.6000E+01
    -36.187  0.0000E+00  0.0000E+00  0.6000E+01  0.6000E+01
    -36.004  0.0000E+00  0.0000E+00  0.6000E+01  0.6000E+01
    -35.821  0.0000E+00  0.0000E+00  0.6000E+01  0.6000E+01
    -35.638  0.0000E+00  0.0000E+00  0.6000E+01  0.6000E+01
    -35.455  0.0000E+00  0.0000E+00  0.6000E+01  0.6000E+01
    -35.272  0.0000E+00  0.0000E+00  0.6000E+01  0.6000E+01
    -35.089  0.0000E+00  0.0000E+00  0.6000E+01  0.6000E+01
    -34.906  0.0000E+00  0.0000E+00  0.6000E+01  0.6000E+01
    -34.723  0.0000E+00  0.0000E+00  0.6000E+01  0.6000E+01
    -34.541  0.0000E+00  0.0000E+00  0.6000E+01  0.6000E+01
    -34.358  0.0000E+00  0.0000E+00  0.6000E+01  0.6000E+01
    -34.175  0.0000E+00  0.0000E+00  0.6000E+01  0.6000E+01
    -33.992  0.0000E+00  0.0000E+00  0.6000E+01  0.6000E+01
    -33.809  0.0000E+00  0.0000E+00  0.6000E+01  0.6000E+01
    -33.626  0.0000E+00  0.0000E+00  0.6000E+01  0.6000E+01
    -33.443  0.0000E+00  0.0000E+00  0.6000E+01  0.6000E+01
    -33.260  0.0000E+00  0.0000E+00  0.6000E+01  0.6000E+01
    -33.077  0.0000E+00  0.0000E+00  0.6000E+01  0.6000E+01
    -32.894  0.0000E+00  0.0000E+00  0.6000E+01  0.6000E+01
    -32.711  0.0000E+00  0.0000E+00  0.6000E+01  0.6000E+01
    -32.529  0.0000E+00  0.0000E+00  0.6000E+01  0.6000E+01
    -32.346  0.0000E+00  0.0000E+00  0.6000E+01  0.6000E+01
    -32.163  0.0000E+00  0.0000E+00  0.6000E+01  0.6000E+01
    -31.980  0.0000E+00  0.0000E+00  0.6000E+01  0.6000E+01
    -31.797  0.0000E+00  0.0000E+00  0.6000E+01  0.6000E+01
    -31.614  0.0000E+00  0.0000E+00  0.6000E+01  0.6000E+01
    -31.431  0.0000E+00  0.0000E+00  0.6000E+01  0.6000E+01
    -31.248  0.0000E+00  0.0000E+00  0.6000E+01  0.6000E+01
    -31.065  0.0000E+00  0.0000E+00  0.6000E+01  0.6000E+01
    -30.882  0.0000E+00  0.0000E+00  0.6000E+01  0.6000E+01
    -30.699  0.0000E+00  0.0000E+00  0.6000E+01  0.6000E+01
    -30.517  0.0000E+00  0.0000E+00  0.6000E+01  0.6000E+01
    -30.334  0.0000E+00  0.0000E+00  0.6000E+01  0.6000E+01
    -30.151  0.0000E+00  0.0000E+00  0.6000E+01  0.6000E+01
    -29.968  0.0000E+00  0.0000E+00  0.6000E+01  0.6000E+01
    -29.785  0.0000E+00  0.0000E+00  0.6000E+01  0.6000E+01
    -29.602  0.0000E+00  0.0000E+00  0.6000E+01  0.6000E+01
    -29.419  0.0000E+00  0.0000E+00  0.6000E+01  0.6000E+01
    -29.236  0.1223E-03  0.1223E-03  0.6000E+01  0.6000E+01
    -29.053  0.0000E+00  0.0000E+00  0.8000E+01  0.8000E+01
    -28.870  0.0000E+00  0.0000E+00  0.8000E+01  0.8000E+01
    -28.687  0.0000E+00  0.0000E+00  0.8000E+01  0.8000E+01
    -28.505  0.0000E+00  0.0000E+00  0.8000E+01  0.8000E+01
    -28.322  0.0000E+00  0.0000E+00  0.8000E+01  0.8000E+01
    -28.139  0.0000E+00  0.0000E+00  0.8000E+01  0.8000E+01
    -27.956  0.5058E+01  0.5058E+01  0.8925E+01  0.8925E+01
    -27.773  0.0000E+00  0.0000E+00  0.1000E+02  0.1000E+02
    -27.590  0.0000E+00  0.0000E+00  0.1000E+02  0.1000E+02
    -27.407  0.0000E+00  0.0000E+00  0.1000E+02  0.1000E+02
    -27.224  0.0000E+00  0.0000E+00  0.1000E+02  0.1000E+02
    -27.041  0.0000E+00  0.0000E+00  0.1000E+02  0.1000E+02
    -26.858  0.1093E+02  0.1093E+02  0.1200E+02  0.1200E+02
    -26.675  0.0000E+00  0.0000E+00  0.1200E+02  0.1200E+02
    -26.493  0.0000E+00  0.0000E+00  0.1400E+02  0.1400E+02
    -26.310  0.0000E+00  0.0000E+00  0.1400E+02  0.1400E+02
    -26.127  0.0000E+00  0.0000E+00  0.1800E+02  0.1800E+02
    -25.944  0.0000E+00  0.0000E+00  0.1800E+02  0.1800E+02
    -25.761  0.0000E+00  0.0000E+00  0.1800E+02  0.1800E+02
    -25.578  0.0000E+00  0.0000E+00  0.1800E+02  0.1800E+02
    -25.395  0.0000E+00  0.0000E+00  0.1800E+02  0.1800E+02
    -25.212  0.0000E+00  0.0000E+00  0.1800E+02  0.1800E+02
    -25.029  0.0000E+00  0.0000E+00  0.1800E+02  0.1800E+02
    -24.846  0.0000E+00  0.0000E+00  0.1800E+02  0.1800E+02
    -24.663  0.0000E+00  0.0000E+00  0.1800E+02  0.1800E+02
    -24.481  0.0000E+00  0.0000E+00  0.1800E+02  0.1800E+02
    -24.298  0.0000E+00  0.0000E+00  0.1800E+02  0.1800E+02
    -24.115  0.0000E+00  0.0000E+00  0.1800E+02  0.1800E+02
    -23.932  0.0000E+00  0.0000E+00  0.1800E+02  0.1800E+02
    -23.749  0.0000E+00  0.0000E+00  0.1800E+02  0.1800E+02
    -23.566  0.0000E+00  0.0000E+00  0.1800E+02  0.1800E+02
    -23.383  0.1093E+02  0.1093E+02  0.2000E+02  0.2000E+02
    -23.200  0.1093E+02  0.1093E+02  0.2200E+02  0.2200E+02
    -23.017  0.0000E+00  0.0000E+00  0.2200E+02  0.2200E+02
    -22.834  0.0000E+00  0.0000E+00  0.2200E+02  0.2200E+02
    -22.651  0.0000E+00  0.0000E+00  0.2200E+02  0.2200E+02
    -22.469  0.1268E+02  0.1268E+02  0.2432E+02  0.2432E+02
    -22.286  0.1017E+02  0.1017E+02  0.2986E+02  0.2986E+02
    -22.103  0.4508E-01  0.4508E-01  0.3001E+02  0.3001E+02
    -21.920  0.0000E+00  0.0000E+00  0.3200E+02  0.3200E+02
    -21.737  0.0000E+00  0.0000E+00  0.3200E+02  0.3200E+02
    -21.554  0.0000E+00  0.0000E+00  0.3200E+02  0.3200E+02
    -21.371  0.0000E+00  0.0000E+00  0.3400E+02  0.3400E+02
    -21.188  0.1213E-01  0.1213E-01  0.3400E+02  0.3400E+02
    -21.005  0.0000E+00  0.0000E+00  0.3600E+02  0.3600E+02
    -20.822  0.1093E+02  0.1093E+02  0.3800E+02  0.3800E+02
    -20.639  0.0000E+00  0.0000E+00  0.3800E+02  0.3800E+02
    -20.457  0.0000E+00  0.0000E+00  0.3800E+02  0.3800E+02
    -20.274  0.0000E+00  0.0000E+00  0.3800E+02  0.3800E+02
    -20.091  0.0000E+00  0.0000E+00  0.3800E+02  0.3800E+02
    -19.908  0.0000E+00  0.0000E+00  0.3800E+02  0.3800E+02
    -19.725  0.0000E+00  0.0000E+00  0.3800E+02  0.3800E+02
    -19.542  0.9874E+01  0.9874E+01  0.3981E+02  0.3981E+02
    -19.359  0.2974E-13  0.2974E-13  0.4000E+02  0.4000E+02
    -19.176  0.0000E+00  0.0000E+00  0.4200E+02  0.4200E+02
    -18.993  0.0000E+00  0.0000E+00  0.4200E+02  0.4200E+02
    -18.810  0.1849E+01  0.1849E+01  0.4234E+02  0.4234E+02
    -18.627  0.0000E+00  0.0000E+00  0.4400E+02  0.4400E+02
    -18.445  0.0000E+00  0.0000E+00  0.4600E+02  0.4600E+02
    -18.262  0.0000E+00  0.0000E+00  0.4600E+02  0.4600E+02
    -18.079  0.0000E+00  0.0000E+00  0.4800E+02  0.4800E+02
    -17.896  0.1092E+02  0.1092E+02  0.5000E+02  0.5000E+02
    -17.713  0.2293E-01  0.2293E-01  0.5200E+02  0.5200E+02
    -17.530  0.0000E+00  0.0000E+00  0.5600E+02  0.5600E+02
    -17.347  0.1093E+02  0.1093E+02  0.5800E+02  0.5800E+02
    -17.164  0.0000E+00  0.0000E+00  0.5800E+02  0.5800E+02
    -16.981  0.0000E+00  0.0000E+00  0.5800E+02  0.5800E+02
    -16.798  0.1093E+02  0.1093E+02  0.6000E+02  0.6000E+02
    -16.615  0.1093E+02  0.1093E+02  0.6200E+02  0.6200E+02
    -16.433  0.0000E+00  0.0000E+00  0.6200E+02  0.6200E+02
    -16.250  0.0000E+00  0.0000E+00  0.6200E+02  0.6200E+02
    -16.067  0.0000E+00  0.0000E+00  0.6200E+02  0.6200E+02
    -15.884  0.1093E+02  0.1093E+02  0.6400E+02  0.6400E+02
    -15.701  0.7005E+01  0.7005E+01  0.6528E+02  0.6528E+02
    -15.518  0.0000E+00  0.0000E+00  0.6600E+02  0.6600E+02
    -15.335  0.1058E+02  0.1058E+02  0.6794E+02  0.6794E+02
    -15.152  0.0000E+00  0.0000E+00  0.7000E+02  0.7000E+02
    -14.969  0.0000E+00  0.0000E+00  0.7000E+02  0.7000E+02
    -14.786  0.1935E+02  0.1935E+02  0.7354E+02  0.7354E+02
    -14.603  0.0000E+00  0.0000E+00  0.7600E+02  0.7600E+02
    -14.421  0.0000E+00  0.0000E+00  0.7600E+02  0.7600E+02
    -14.238  0.4904E-12  0.4904E-12  0.7800E+02  0.7800E+02
    -14.055  0.2187E+02  0.2187E+02  0.8400E+02  0.8400E+02
    -13.872  0.1916E+02  0.1916E+02  0.8950E+02  0.8950E+02
    -13.689  0.0000E+00  0.0000E+00  0.9000E+02  0.9000E+02
    -13.506  0.9354E-12  0.9354E-12  0.9000E+02  0.9000E+02
    -13.323  0.1093E+02  0.1093E+02  0.9400E+02  0.9400E+02
    -13.140  0.1093E+02  0.1093E+02  0.1000E+03  0.1000E+03
    -12.957  0.1093E+02  0.1093E+02  0.1040E+03  0.1040E+03
    -12.774  0.1159E+02  0.1159E+02  0.1061E+03  0.1061E+03
    -12.591  0.0000E+00  0.0000E+00  0.1080E+03  0.1080E+03
    -12.409  0.1093E+02  0.1093E+02  0.1120E+03  0.1120E+03
    -12.226  0.3160E-02  0.3160E-02  0.1140E+03  0.1140E+03
    -12.043  0.1985E+02  0.1985E+02  0.1196E+03  0.1196E+03
    -11.860  0.0000E+00  0.0000E+00  0.1200E+03  0.1200E+03
    -11.677  0.1093E+02  0.1093E+02  0.1220E+03  0.1220E+03
    -11.494  0.0000E+00  0.0000E+00  0.1220E+03  0.1220E+03
    -11.311  0.1781E+02  0.1781E+02  0.1253E+03  0.1253E+03
    -11.128  0.2187E+02  0.2187E+02  0.1300E+03  0.1300E+03
    -10.945  0.0000E+00  0.0000E+00  0.1300E+03  0.1300E+03
    -10.762  0.2187E+02  0.2187E+02  0.1340E+03  0.1340E+03
    -10.579  0.1960E+02  0.1960E+02  0.1396E+03  0.1396E+03
    -10.397  0.0000E+00  0.0000E+00  0.1400E+03  0.1400E+03
    -10.214  0.0000E+00  0.0000E+00  0.1400E+03  0.1400E+03
    -10.031  0.2339E-02  0.2339E-02  0.1400E+03  0.1400E+03
     -9.848  0.2028E+02  0.2028E+02  0.1477E+03  0.1477E+03
     -9.665  0.1093E+02  0.1093E+02  0.1520E+03  0.1520E+03
     -9.482  0.1290E-04  0.1290E-04  0.1520E+03  0.1520E+03
     -9.299  0.0000E+00  0.0000E+00  0.1540E+03  0.1540E+03
     -9.116  0.0000E+00  0.0000E+00  0.1540E+03  0.1540E+03
     -8.933  0.1016E+02  0.1016E+02  0.1559E+03  0.1559E+03
     -8.750  0.1093E+02  0.1093E+02  0.1580E+03  0.1580E+03
     -8.567  0.0000E+00  0.0000E+00  0.1580E+03  0.1580E+03
     -8.385  0.0000E+00  0.0000E+00  0.1600E+03  0.1600E+03
     -8.202  0.0000E+00  0.0000E+00  0.1600E+03  0.1600E+03
     -8.019  0.0000E+00  0.0000E+00  0.1600E+03  0.1600E+03
     -7.836  0.0000E+00  0.0000E+00  0.1600E+03  0.1600E+03
     -7.653  0.0000E+00  0.0000E+00  0.1600E+03  0.1600E+03
     -7.470  0.0000E+00  0.0000E+00  0.1620E+03  0.1620E+03
     -7.287  0.0000E+00  0.0000E+00  0.1640E+03  0.1640E+03
     -7.104  0.0000E+00  0.0000E+00  0.1660E+03  0.1660E+03
     -6.921  0.0000E+00  0.0000E+00  0.1660E+03  0.1660E+03
     -6.738  0.0000E+00  0.0000E+00  0.1660E+03  0.1660E+03
     -6.555  0.0000E+00  0.0000E+00  0.1660E+03  0.1660E+03
     -6.373  0.0000E+00  0.0000E+00  0.1660E+03  0.1660E+03
     -6.190  0.0000E+00  0.0000E+00  0.1660E+03  0.1660E+03
     -6.007  0.0000E+00  0.0000E+00  0.1660E+03  0.1660E+03
     -5.824  0.0000E+00  0.0000E+00  0.1660E+03  0.1660E+03
     -5.641  0.0000E+00  0.0000E+00  0.1660E+03  0.1660E+03
     -5.458  0.1093E+02  0.1093E+02  0.1680E+03  0.1680E+03
     -5.275  0.1093E+02  0.1093E+02  0.1700E+03  0.1700E+03
     -5.092  0.1084E+02  0.1084E+02  0.1720E+03  0.1720E+03
     -4.909  0.0000E+00  0.0000E+00  0.1720E+03  0.1720E+03
     -4.726  0.0000E+00  0.0000E+00  0.1720E+03  0.1720E+03
     -4.543  0.0000E+00  0.0000E+00  0.1720E+03  0.1720E+03
     -4.361  0.0000E+00  0.0000E+00  0.1720E+03  0.1720E+03
     -4.178  0.1122E+02  0.1122E+02  0.1761E+03  0.1761E+03
     -3.995  0.2187E+02  0.2187E+02  0.1820E+03  0.1820E+03
     -3.812  0.0000E+00  0.0000E+00  0.1820E+03  0.1820E+03
     -3.629  0.0000E+00  0.0000E+00  0.1820E+03  0.1820E+03
     -3.446  0.0000E+00  0.0000E+00  0.1840E+03  0.1840E+03
     -3.263  0.9747E+01  0.9747E+01  0.1858E+03  0.1858E+03
     -3.080  0.0000E+00  0.0000E+00  0.1880E+03  0.1880E+03
     -2.897  0.4318E-07  0.4318E-07  0.1880E+03  0.1880E+03
     -2.714  0.0000E+00  0.0000E+00  0.1920E+03  0.1920E+03
     -2.531  0.0000E+00  0.0000E+00  0.1920E+03  0.1920E+03
     -2.349  0.0000E+00  0.0000E+00  0.1920E+03  0.1920E+03
     -2.166  0.0000E+00  0.0000E+00  0.1920E+03  0.1920E+03
     -1.983  0.0000E+00  0.0000E+00  0.1940E+03  0.1940E+03
     -1.800  0.6084E-02  0.6081E-02  0.1940E+03  0.1940E+03
     -1.617  0.2283E-10  0.2282E-10  0.1960E+03  0.1960E+03
     -1.434  0.0000E+00  0.0000E+00  0.1980E+03  0.1980E+03
     -1.251  0.1949E+02  0.1948E+02  0.2016E+03  0.2016E+03
     -1.068  0.1107E+02  0.1107E+02  0.2060E+03  0.2060E+03
     -0.885  0.9139E+01  0.9139E+01  0.2097E+03  0.2097E+03
     -0.702  0.2187E+02  0.2187E+02  0.2140E+03  0.2140E+03
     -0.519  0.2184E+02  0.2184E+02  0.2200E+03  0.2200E+03
     -0.337  0.1069E+02  0.1069E+02  0.2240E+03  0.2240E+03
     -0.154  0.1196E+02  0.1196E+02  0.2262E+03  0.2262E+03
      0.029  0.1093E+02  0.1093E+02  0.2320E+03  0.2320E+03
      0.212  0.1093E+02  0.1093E+02  0.2360E+03  0.2360E+03
      0.395  0.2178E+02  0.2178E+02  0.2440E+03  0.2440E+03
      0.578  0.1379E+02  0.1379E+02  0.2505E+03  0.2505E+03
      0.761  0.0000E+00  0.0000E+00  0.2560E+03  0.2560E+03
      0.944  0.0000E+00  0.0000E+00  0.2560E+03  0.2560E+03
      1.127  0.0000E+00  0.0000E+00  0.2560E+03  0.2560E+03
      1.310  0.0000E+00  0.0000E+00  0.2560E+03  0.2560E+03
      1.493  0.0000E+00  0.0000E+00  0.2560E+03  0.2560E+03
      1.675  0.0000E+00  0.0000E+00  0.2560E+03  0.2560E+03
      1.858  0.0000E+00  0.0000E+00  0.2560E+03  0.2560E+03
      2.041  0.0000E+00  0.0000E+00  0.2560E+03  0.2560E+03
      2.224  0.0000E+00  0.0000E+00  0.2560E+03  0.2560E+03
      2.407  0.0000E+00  0.0000E+00  0.2560E+03  0.2560E+03
      2.590  0.0000E+00  0.0000E+00  0.2560E+03  0.2560E+03
      2.773  0.0000E+00  0.0000E+00  0.2560E+03  0.2560E+03
      2.956  0.0000E+00  0.0000E+00  0.2560E+03  0.2560E+03
      3.139  0.0000E+00  0.0000E+00  0.2560E+03  0.2560E+03
