   55   55    1    2
  0.1454545E+03  0.2000000E-08  0.2000000E-08  0.2000000E-08  0.5000000E-15
  1.000000000000000E-004
  CAR 
 c2_oh2_ruthenium_mol                    
    166      1    128
 
  0.0000000E+00  0.0000000E+00  0.0000000E+00  0.1000000E+01
    1      -49.239763    -49.239763
    2      -49.076469    -49.076469
    3      -48.824195    -48.824195
    4      -29.206184    -29.206184
    5      -27.955136    -27.955135
    6      -26.932067    -26.932067
    7      -26.612899    -26.612899
    8      -26.231884    -26.231884
    9      -26.219269    -26.219269
   10      -23.409610    -23.409610
   11      -23.238711    -23.238711
   12      -22.533701    -22.533701
   13      -22.461488    -22.461488
   14      -22.398780    -22.398780
   15      -22.296055    -22.296055
   16      -22.084030    -22.084030
   17      -21.490667    -21.490667
   18      -21.166532    -21.166532
   19      -20.880182    -20.880182
   20      -19.551167    -19.551167
   21      -19.303806    -19.303806
   22      -18.803576    -18.803576
   23      -18.537700    -18.537700
   24      -18.158750    -18.158750
   25      -17.917426    -17.917426
   26      -17.849535    -17.849535
   27      -17.692648    -17.692648
   28      -17.670145    -17.670145
   29      -17.387120    -17.387120
   30      -16.876523    -16.876523
   31      -16.681382    -16.681382
   32      -15.939363    -15.939363
   33      -15.703440    -15.703440
   34      -15.348162    -15.348162
   35      -15.270581    -15.270581
   36      -14.846603    -14.846603
   37      -14.791562    -14.791562
   38      -14.760764    -14.760764
   39      -14.336108    -14.336108
   40      -14.184905    -14.184905
   41      -14.111091    -14.111091
   42      -14.091513    -14.091513
   43      -14.028522    -14.028522
   44      -13.920784    -13.920784
   45      -13.876622    -13.876622
   46      -13.453874    -13.453874
   47      -13.370106    -13.370106
   48      -13.287322    -13.287322
   49      -13.266924    -13.266924
   50      -13.203807    -13.203807
   51      -13.055187    -13.055187
   52      -13.007159    -13.007159
   53      -12.797756    -12.797757
   54      -12.763388    -12.763388
   55      -12.508759    -12.508759
   56      -12.440308    -12.440308
   57      -12.369803    -12.369803
   58      -12.201285    -12.201285
   59      -12.086592    -12.086592
   60      -12.049059    -12.049059
   61      -11.737242    -11.737242
   62      -11.364540    -11.364540
   63      -11.313408    -11.313408
   64      -11.187282    -11.187282
   65      -11.171957    -11.171957
   66      -10.817309    -10.817309
   67      -10.802101    -10.802101
   68      -10.701052    -10.701052
   69      -10.647527    -10.647527
   70      -10.585201    -10.585201
   71      -10.005807    -10.005807
   72       -9.966267     -9.966267
   73       -9.927106     -9.927106
   74       -9.855268     -9.855268
   75       -9.794480     -9.794480
   76       -9.697519     -9.697519
   77       -9.448611     -9.448611
   78       -8.943636     -8.943636
   79       -8.783169     -8.783169
   80       -8.482823     -8.482823
   81       -7.551631     -7.551631
   82       -7.396760     -7.396760
   83       -7.223787     -7.223787
   84       -5.506987     -5.506986
   85       -5.316596     -5.316596
   86       -5.108889     -5.108889
   87       -4.289210     -4.289210
   88       -4.232199     -4.232199
   89       -4.163924     -4.163924
   90       -4.063724     -4.063724
   91       -4.031544     -4.031544
   92       -3.553261     -3.553261
   93       -3.271804     -3.271804
   94       -3.167700     -3.167700
   95       -2.856456     -2.856455
   96       -2.823085     -2.823085
   97       -2.104518     -2.104518
   98       -1.776752     -1.776751
   99       -1.567886     -1.567886
  100       -1.282329     -1.282328
  101       -1.256588     -1.256586
  102       -1.181127     -1.181127
  103       -1.144063     -1.144064
  104       -1.052241     -1.052240
  105       -0.892171     -0.892172
  106       -0.770832     -0.770829
  107       -0.735423     -0.735423
  108       -0.625934     -0.625933
  109       -0.575405     -0.575406
  110       -0.539415     -0.539414
  111       -0.423648     -0.423647
  112       -0.350691     -0.350692
  113       -0.226520     -0.226520
  114       -0.144320     -0.144320
  115       -0.055043     -0.055043
  116       -0.050337     -0.050337
  117        0.081955      0.081955
  118        0.151360      0.151361
  119        0.242111      0.242114
  120        0.289789      0.289790
  121        0.344615      0.344617
  122        0.378244      0.378244
  123        0.418883      0.418883
  124        0.471486      0.471485
  125        0.551546      0.551542
  126        0.582528      0.582529
  127        0.605514      0.605509
  128        0.644506      0.644524
