       N       E                     dE             d eps       ncg     rms          rms(c)
DAV:   1     0.909691660505E+03    0.90969E+03   -0.58811E+04   768   0.974E+02
DAV:   2    -0.684545534527E+02   -0.97815E+03   -0.97172E+03  1024   0.160E+02
DAV:   3    -0.391089625926E+03   -0.32264E+03   -0.32206E+03   768   0.850E+01
DAV:   4    -0.411444539374E+03   -0.20355E+02   -0.20325E+02   640   0.283E+01
DAV:   5    -0.411801775278E+03   -0.35724E+00   -0.35708E+00   896   0.383E+00    0.575E+01
DAV:   6    -0.393380064829E+03    0.18422E+02   -0.36947E+02   640   0.232E+01    0.388E+01
DAV:   7    -0.382690987011E+03    0.10689E+02   -0.22337E+01   640   0.207E+01    0.238E+01
DAV:   8    -0.378468649259E+03    0.42223E+01   -0.17955E+01   768   0.102E+01    0.956E+00
DAV:   9    -0.377293795161E+03    0.11749E+01   -0.54839E+00   768   0.481E+00    0.362E+00
DAV:  10    -0.377256838157E+03    0.36957E-01   -0.40059E-01   768   0.151E+00    0.256E+00
DAV:  11    -0.377116050293E+03    0.14079E+00   -0.16028E-01   768   0.979E-01    0.105E+00
DAV:  12    -0.377043431906E+03    0.72618E-01   -0.80844E-02   768   0.665E-01    0.656E-01
DAV:  13    -0.377023403688E+03    0.20028E-01   -0.18524E-02   768   0.365E-01    0.472E-01
DAV:  14    -0.377013119028E+03    0.10285E-01   -0.13229E-02   768   0.298E-01    0.295E-01
DAV:  15    -0.377014318646E+03   -0.11996E-02   -0.49762E-03   768   0.203E-01    0.234E-01
DAV:  16    -0.377021311867E+03   -0.69932E-02   -0.15897E-03   768   0.130E-01    0.177E-01
DAV:  17    -0.377027279009E+03   -0.59671E-02   -0.11747E-03   768   0.107E-01    0.877E-02
DAV:  18    -0.377033596725E+03   -0.63177E-02   -0.84682E-04   768   0.839E-02    0.640E-02
DAV:  19    -0.377037734680E+03   -0.41380E-02   -0.34798E-04   768   0.545E-02    0.419E-02
DAV:  20    -0.377039741248E+03   -0.20066E-02   -0.75055E-05   768   0.273E-02    0.261E-02
DAV:  21    -0.377041913077E+03   -0.21718E-02   -0.80327E-05   768   0.247E-02    0.139E-02
DAV:  22    -0.377042835583E+03   -0.92251E-03   -0.27481E-05   768   0.136E-02    0.119E-02
DAV:  23    -0.377043415981E+03   -0.58040E-03   -0.78878E-06   640   0.735E-03    0.774E-03
DAV:  24    -0.377043899700E+03   -0.48372E-03   -0.11945E-05   640   0.732E-03    0.497E-03
DAV:  25    -0.377044017732E+03   -0.11803E-03   -0.22147E-06   640   0.345E-03    0.290E-03
DAV:  26    -0.377044167269E+03   -0.14954E-03   -0.21493E-06   640   0.301E-03    0.166E-03
DAV:  27    -0.377044265681E+03   -0.98412E-04   -0.14648E-06   640   0.223E-03    0.130E-03
DAV:  28    -0.377044331313E+03   -0.65632E-04   -0.10063E-06   640   0.177E-03    0.646E-04
DAV:  29    -0.377044354996E+03   -0.23683E-04   -0.25954E-07   640   0.104E-03    0.557E-04
DAV:  30    -0.377044369573E+03   -0.14577E-04   -0.52068E-08   640   0.709E-04    0.346E-04
DAV:  31    -0.377044377522E+03   -0.79486E-05    0.15532E-08   640   0.535E-04
   1 F= -.37704438E+03 E0= -.37704438E+03  d E =-.104271-120  mag=    -0.0000
