 vasp.5.3.5 31Mar14 (build Apr 08 2014 12:00:03) complex                        
  
 VASP binary ID code NSC-NSCPATCH-BUILD02 date 2017.03.15  18:56:23
 running on   64 total cores
 distrk:  each k-point on   64 cores,    1 groups
 distr:  one band on NCORES_PER_BAND=   1 cores,   64 groups


--------------------------------------------------------------------------------------------------------


 INCAR:
 POTCAR:    PAW_PBE C_h 06Feb2004                 
 POTCAR:    PAW_PBE C_h 06Feb2004                 
 POTCAR:    PAW_PBE H 15Jun2001                   
 POTCAR:    PAW_PBE N_h 06Feb2004                 
 POTCAR:    PAW_PBE O_h 06Feb2004                 
 POTCAR:    PAW_PBE Ru_pv 28Jan2005               

 ----------------------------------------------------------------------------- 
|                                                                             |
|           W    W    AA    RRRRR   N    N  II  N    N   GGGG   !!!           |
|           W    W   A  A   R    R  NN   N  II  NN   N  G    G  !!!           |
|           W    W  A    A  R    R  N N  N  II  N N  N  G       !!!           |
|           W WW W  AAAAAA  RRRRR   N  N N  II  N  N N  G  GGG   !            |
|           WW  WW  A    A  R   R   N   NN  II  N   NN  G    G                |
|           W    W  A    A  R    R  N    N  II  N    N   GGGG   !!!           |
|                                                                             |
|      For optimal performance we recommend to set                            |
|        NCORE= 4 - approx SQRT( number of cores)                             |
|      NCORE specifies how many cores store one orbital (NPAR=cpu/NCORE).     |
|      This setting can  greatly improve the performance of VASP for DFT.     |
|      The default, NPAR=number of cores might be grossly inefficient         |
|      on modern multi-core architectures or massively parallel machines.     |
|      Do your own testing !!!!                                               |
|      Unfortunately you need to use the default for GW and RPA calculations. |
|      (for HF NCORE is supported but not extensively tested yet)             |
|                                                                             |
 ----------------------------------------------------------------------------- 

 POTCAR:    PAW_PBE C_h 06Feb2004                 
   VRHFIN =C: s2p2                                                              
   LEXCH  = PE                                                                  
   EATOM  =   147.1560 eV,   10.8157 Ry                                         
                                                                                
   TITEL  = PAW_PBE C_h 06Feb2004                                               
   LULTRA =        F    use ultrasoft PP ?                                      
   IUNSCR =        1    unscreen: 0-lin 1-nonlin 2-no                           
   RPACOR =    0.800    partial core radius                                     
   POMASS =   12.011; ZVAL   =    4.000    mass and valenz                      
   RCORE  =    1.100    outmost cutoff radius                                   
   RWIGS  =    1.630; RWIGS  =    0.863    wigner-seitz radius (au A)           
   ENMAX  =  700.000; ENMIN  =  500.000 eV                                      
   ICORE  =        2    local potential                                         
   LCOR   =        T    correct aug charges                                     
   LPAW   =        T    paw PP                                                  
   EAUG   =  946.768                                                            
   DEXC   =    0.000                                                            
   RMAX   =    1.128    core radius for proj-oper                               
   RAUG   =    1.300    factor for augmentation sphere                          
   RDEP   =    1.162    radius for radial grids                                 
   RDEPT  =    1.088    core radius for aug-charge                              
                                                                                
   Atomic configuration                                                         
    4 entries                                                                   
     n  l   j            E        occ.                                          
     1  0  0.50      -273.3789   2.0000                                         
     2  0  0.50       -13.7508   2.0000                                         
     2  1  0.50        -5.2854   2.0000                                         
     3  2  1.50        -5.4423   0.0000                                         
   Description                                                                  
     l       E           TYP  RCUT    TYP  RCUT                                 
     0    -13.7508458     23  1.100                                             
     0     -8.2022199     23  1.100                                             
     1     -5.2854383     23  1.100                                             
     1      1.1560700     23  1.100                                             
     2     -5.4423304      7  1.100                                             
  local pseudopotential read in
  partial core-charges read in
  partial kinetic energy density read in
  atomic valenz-charges read in
  non local Contribution for L=           0  read in
    real space projection operators read in
  non local Contribution for L=           0  read in
    real space projection operators read in
  non local Contribution for L=           1  read in
    real space projection operators read in
  non local Contribution for L=           1  read in
    real space projection operators read in
    PAW grid and wavefunctions read in
 
   number of l-projection  operators is LMAX  =           4
   number of lm-projection operators is LMMAX =           8
 
 POTCAR:    PAW_PBE C_h 06Feb2004                 
   VRHFIN =C: s2p2                                                              
   LEXCH  = PE                                                                  
   EATOM  =   147.1560 eV,   10.8157 Ry                                         
                                                                                
   TITEL  = PAW_PBE C_h 06Feb2004                                               
   LULTRA =        F    use ultrasoft PP ?                                      
   IUNSCR =        1    unscreen: 0-lin 1-nonlin 2-no                           
   RPACOR =    0.800    partial core radius                                     
   POMASS =   12.011; ZVAL   =    4.000    mass and valenz                      
   RCORE  =    1.100    outmost cutoff radius                                   
   RWIGS  =    1.630; RWIGS  =    0.863    wigner-seitz radius (au A)           
   ENMAX  =  700.000; ENMIN  =  500.000 eV                                      
   ICORE  =        2    local potential                                         
   LCOR   =        T    correct aug charges                                     
   LPAW   =        T    paw PP                                                  
   EAUG   =  946.768                                                            
   DEXC   =    0.000                                                            
   RMAX   =    1.128    core radius for proj-oper                               
   RAUG   =    1.300    factor for augmentation sphere                          
   RDEP   =    1.162    radius for radial grids                                 
   RDEPT  =    1.088    core radius for aug-charge                              
                                                                                
   Atomic configuration                                                         
    4 entries                                                                   
     n  l   j            E        occ.                                          
     1  0  0.50      -273.3789   2.0000                                         
     2  0  0.50       -13.7508   2.0000                                         
     2  1  0.50        -5.2854   2.0000                                         
     3  2  1.50        -5.4423   0.0000                                         
   Description                                                                  
     l       E           TYP  RCUT    TYP  RCUT                                 
     0    -13.7508458     23  1.100                                             
     0     -8.2022199     23  1.100                                             
     1     -5.2854383     23  1.100                                             
     1      1.1560700     23  1.100                                             
     2     -5.4423304      7  1.100                                             
  local pseudopotential read in
  partial core-charges read in
  partial kinetic energy density read in
  atomic valenz-charges read in
  non local Contribution for L=           0  read in
    real space projection operators read in
  non local Contribution for L=           0  read in
    real space projection operators read in
  non local Contribution for L=           1  read in
    real space projection operators read in
  non local Contribution for L=           1  read in
    real space projection operators read in
    PAW grid and wavefunctions read in
 
   number of l-projection  operators is LMAX  =           4
   number of lm-projection operators is LMMAX =           8
 
 POTCAR:    PAW_PBE H 15Jun2001                   
   VRHFIN =H: ultrasoft test                                                    
   LEXCH  = PE                                                                  
   EATOM  =    12.4884 eV,    0.9179 Ry                                         
                                                                                
   TITEL  = PAW_PBE H 15Jun2001                                                 
   LULTRA =        F    use ultrasoft PP ?                                      
   IUNSCR =        0    unscreen: 0-lin 1-nonlin 2-no                           
   RPACOR =    0.000    partial core radius                                     
   POMASS =    1.000; ZVAL   =    1.000    mass and valenz                      
   RCORE  =    1.100    outmost cutoff radius                                   
   RWIGS  =    0.700; RWIGS  =    0.370    wigner-seitz radius (au A)           
   ENMAX  =  250.000; ENMIN  =  200.000 eV                                      
   RCLOC  =    0.701    cutoff for local pot                                    
   LCOR   =        T    correct aug charges                                     
   LPAW   =        T    paw PP                                                  
   EAUG   =  400.000                                                            
   RMAX   =    1.123    core radius for proj-oper                               
   RAUG   =    1.200    factor for augmentation sphere                          
   RDEP   =    1.112    radius for radial grids                                 
   RDEPT  =    0.926    core radius for aug-charge                              
                                                                                
   Atomic configuration                                                         
    2 entries                                                                   
     n  l   j            E        occ.                                          
     1  0  0.50        -6.4927   1.0000                                         
     2  1  0.50        -3.4015   0.0000                                         
   Description                                                                  
     l       E           TYP  RCUT    TYP  RCUT                                 
     0     -6.4927494     23  1.100                                             
     0      6.8029130     23  1.100                                             
     1     -4.0817478     23  1.100                                             
  local pseudopotential read in
  atomic valenz-charges read in
  non local Contribution for L=           0  read in
    real space projection operators read in
  non local Contribution for L=           0  read in
    real space projection operators read in
  non local Contribution for L=           1  read in
    real space projection operators read in
    PAW grid and wavefunctions read in
 
   number of l-projection  operators is LMAX  =           3
   number of lm-projection operators is LMMAX =           5
 
 POTCAR:    PAW_PBE N_h 06Feb2004                 
   VRHFIN =N: s2p3                                                              
   LEXCH  = PE                                                                  
   EATOM  =   264.5486 eV,   19.4438 Ry                                         
                                                                                
   TITEL  = PAW_PBE N_h 06Feb2004                                               
   LULTRA =        F    use ultrasoft PP ?                                      
   IUNSCR =        1    unscreen: 0-lin 1-nonlin 2-no                           
   RPACOR =    0.800    partial core radius                                     
   POMASS =   14.001; ZVAL   =    5.000    mass and valenz                      
   RCORE  =    1.100    outmost cutoff radius                                   
   RWIGS  =    1.480; RWIGS  =    0.783    wigner-seitz radius (au A)           
   ENMAX  =  700.000; ENMIN  =  500.000 eV                                      
   ICORE  =        2    local potential                                         
   LCOR   =        T    correct aug charges                                     
   LPAW   =        T    paw PP                                                  
   EAUG   =  904.640                                                            
   DEXC   =    0.000                                                            
   RMAX   =    1.127    core radius for proj-oper                               
   RAUG   =    1.300    factor for augmentation sphere                          
   RDEP   =    1.115    radius for radial grids                                 
   RDEPT  =    1.106    core radius for aug-charge                              
                                                                                
   Atomic configuration                                                         
    4 entries                                                                   
     n  l   j            E        occ.                                          
     1  0  0.50      -384.7179   2.0000                                         
     2  0  0.50       -18.5828   2.0000                                         
     2  1  0.50        -7.0898   3.0000                                         
     3  2  1.50        -6.8029   0.0000                                         
   Description                                                                  
     l       E           TYP  RCUT    TYP  RCUT                                 
     0    -18.5828117     23  1.100                                             
     0    -15.0750597     23  1.100                                             
     1     -7.0897851     23  1.100                                             
     1     -1.9663412     23  1.100                                             
     2     -6.8029130      7  1.100                                             
  local pseudopotential read in
  partial core-charges read in
  partial kinetic energy density read in
  kinetic energy density of atom read in
  atomic valenz-charges read in
  non local Contribution for L=           0  read in
    real space projection operators read in
  non local Contribution for L=           0  read in
    real space projection operators read in
  non local Contribution for L=           1  read in
    real space projection operators read in
  non local Contribution for L=           1  read in
    real space projection operators read in
    PAW grid and wavefunctions read in
 
   number of l-projection  operators is LMAX  =           4
   number of lm-projection operators is LMMAX =           8
 
 POTCAR:    PAW_PBE O_h 06Feb2004                 
   VRHFIN =O: s2p4                                                              
   LEXCH  = PE                                                                  
   EATOM  =   432.3788 eV,   31.7789 Ry                                         
                                                                                
   TITEL  = PAW_PBE O_h 06Feb2004                                               
   LULTRA =        F    use ultrasoft PP ?                                      
   IUNSCR =        1    unscreen: 0-lin 1-nonlin 2-no                           
   RPACOR =    0.800    partial core radius                                     
   POMASS =   16.000; ZVAL   =    6.000    mass and valenz                      
   RCORE  =    1.100    outmost cutoff radius                                   
   RWIGS  =    1.400; RWIGS  =    0.741    wigner-seitz radius (au A)           
   ENMAX  =  700.000; ENMIN  =  500.000 eV                                      
   ICORE  =        2    local potential                                         
   LCOR   =        T    correct aug charges                                     
   LPAW   =        T    paw PP                                                  
   EAUG   =  888.804                                                            
   DEXC   =    0.000                                                            
   RMAX   =    1.128    core radius for proj-oper                               
   RAUG   =    1.300    factor for augmentation sphere                          
   RDEP   =    1.125    radius for radial grids                                 
   RDEPT  =    1.088    core radius for aug-charge                              
                                                                                
   Atomic configuration                                                         
    4 entries                                                                   
     n  l   j            E        occ.                                          
     1  0  0.50      -514.6923   2.0000                                         
     2  0  0.50       -23.9615   2.0000                                         
     2  1  0.50        -9.0305   4.0000                                         
     3  2  1.50        -9.5241   0.0000                                         
   Description                                                                  
     l       E           TYP  RCUT    TYP  RCUT                                 
     0    -23.9615319     23  1.100                                             
     0    -25.3221145     23  1.100                                             
     1     -9.0304911     23  1.100                                             
     1     -5.4802209     23  1.100                                             
     2     -9.5240782      7  1.100                                             
  local pseudopotential read in
  partial core-charges read in
  partial kinetic energy density read in
  atomic valenz-charges read in
  non local Contribution for L=           0  read in
    real space projection operators read in
  non local Contribution for L=           0  read in
    real space projection operators read in
  non local Contribution for L=           1  read in
    real space projection operators read in
  non local Contribution for L=           1  read in
    real space projection operators read in
    PAW grid and wavefunctions read in
 
   number of l-projection  operators is LMAX  =           4
   number of lm-projection operators is LMMAX =           8
 
 POTCAR:    PAW_PBE Ru_pv 28Jan2005               
   VRHFIN =Ru: 4p5s4d                                                           
   LEXCH  = PE                                                                  
   EATOM  =  1873.4746 eV,  137.6965 Ry                                         
                                                                                
   TITEL  = PAW_PBE Ru_pv 28Jan2005                                             
   LULTRA =        F    use ultrasoft PP ?                                      
   IUNSCR =        1    unscreen: 0-lin 1-nonlin 2-no                           
   RPACOR =    2.170    partial core radius                                     
   POMASS =  101.070; ZVAL   =   14.000    mass and valenz                      
   RCORE  =    2.500    outmost cutoff radius                                   
   RWIGS  =    2.650; RWIGS  =    1.402    wigner-seitz radius (au A)           
   ENMAX  =  240.049; ENMIN  =  180.037 eV                                      
   ICORE  =        3    local potential                                         
   LCOR   =        T    correct aug charges                                     
   LPAW   =        T    paw PP                                                  
   EAUG   =  430.792                                                            
   DEXC   =    0.000                                                            
   RMAX   =    2.546    core radius for proj-oper                               
   RAUG   =    1.300    factor for augmentation sphere                          
   RDEP   =    2.520    radius for radial grids                                 
   RDEPT  =    2.044    core radius for aug-charge                              
                                                                                
   Atomic configuration                                                         
   11 entries                                                                   
     n  l   j            E        occ.                                          
     1  0  0.50    -21933.2692   2.0000                                         
     2  0  0.50     -3153.4096   2.0000                                         
     2  1  1.50     -2823.9548   6.0000                                         
     3  0  0.50      -555.3322   2.0000                                         
     3  1  1.50      -447.1024   6.0000                                         
     3  2  2.50      -273.0570  10.0000                                         
     4  0  0.50       -76.3589   2.0000                                         
     4  1  1.50       -46.4050   6.0000                                         
     4  2  2.50        -5.2029   7.0000                                         
     5  0  0.50        -4.2392   1.0000                                         
     4  3  2.50        -1.3606   0.0000                                         
   Description                                                                  
     l       E           TYP  RCUT    TYP  RCUT                                 
     1    -46.4050190     23  2.100                                             
     1      4.0817478     23  2.100                                             
     2     -5.2028758     23  2.500                                             
     2     -6.5634584     23  2.500                                             
     0     -4.2392192     23  2.500                                             
     0      7.0918828     23  2.500                                             
     3     -5.4423304     23  2.500                                             
  local pseudopotential read in
  partial core-charges read in
  partial kinetic energy density read in
  atomic valenz-charges read in
  non local Contribution for L=           1  read in
    real space projection operators read in
  non local Contribution for L=           1  read in
    real space projection operators read in
  non local Contribution for L=           2  read in
    real space projection operators read in
  non local Contribution for L=           2  read in
    real space projection operators read in
  non local Contribution for L=           0  read in
    real space projection operators read in
  non local Contribution for L=           0  read in
    real space projection operators read in
    PAW grid and wavefunctions read in
 
   number of l-projection  operators is LMAX  =           6
   number of lm-projection operators is LMMAX =          18
 
 Optimization of the real space projectors (new method)

 maximal supplied QI-value         = 34.20
 optimisation between [QCUT,QGAM] = [ 13.34, 27.02] = [ 49.83,204.46] Ry 
 Optimized for a Real-space Cutoff    1.04 Angstroem

   l    n(q)    QCUT    max X(q) W(low)/X(q) W(high)/X(q)  e(spline) 
   0      8    13.340   134.812    0.72E-04    0.21E-03    0.27E-06
   0      8    13.340    80.524    0.70E-04    0.21E-03    0.27E-06
   1      8    13.340    79.026    0.21E-03    0.16E-03    0.33E-06
   1      8    13.340    45.188    0.20E-03    0.15E-03    0.33E-06
 Optimization of the real space projectors (new method)

 maximal supplied QI-value         = 34.20
 optimisation between [QCUT,QGAM] = [ 13.34, 27.02] = [ 49.83,204.46] Ry 
 Optimized for a Real-space Cutoff    1.04 Angstroem

   l    n(q)    QCUT    max X(q) W(low)/X(q) W(high)/X(q)  e(spline) 
   0      8    13.340   134.812    0.72E-04    0.21E-03    0.27E-06
   0      8    13.340    80.524    0.70E-04    0.21E-03    0.27E-06
   1      8    13.340    79.026    0.21E-03    0.16E-03    0.33E-06
   1      8    13.340    45.188    0.20E-03    0.15E-03    0.33E-06
 Optimization of the real space projectors (new method)

 maximal supplied QI-value         = 34.20
 optimisation between [QCUT,QGAM] = [ 13.34, 27.02] = [ 49.83,204.46] Ry 
 Optimized for a Real-space Cutoff    0.98 Angstroem

   l    n(q)    QCUT    max X(q) W(low)/X(q) W(high)/X(q)  e(spline) 
   0      8    13.340    19.460    0.18E-03    0.41E-04    0.19E-06
   0      8    13.340    12.209    0.17E-03    0.45E-04    0.18E-06
   1      7    13.340     4.655    0.16E-03    0.30E-03    0.14E-06
 Optimization of the real space projectors (new method)

 maximal supplied QI-value         = 34.20
 optimisation between [QCUT,QGAM] = [ 13.34, 27.02] = [ 49.83,204.46] Ry 
 Optimized for a Real-space Cutoff    1.04 Angstroem

   l    n(q)    QCUT    max X(q) W(low)/X(q) W(high)/X(q)  e(spline) 
   0      8    13.340   148.539    0.85E-04    0.19E-03    0.21E-06
   0      8    13.340   106.192    0.84E-04    0.19E-03    0.21E-06
   1      8    13.340    73.877    0.18E-03    0.11E-03    0.36E-06
   1      8    13.340    50.042    0.17E-03    0.11E-03    0.36E-06
 Optimization of the real space projectors (new method)

 maximal supplied QI-value         = 34.20
 optimisation between [QCUT,QGAM] = [ 13.34, 27.02] = [ 49.83,204.46] Ry 
 Optimized for a Real-space Cutoff    0.98 Angstroem

   l    n(q)    QCUT    max X(q) W(low)/X(q) W(high)/X(q)  e(spline) 
   0      8    13.340   280.207    0.16E-03    0.35E-03    0.14E-06
   0      8    13.340   228.978    0.16E-03    0.35E-03    0.14E-06
   1      7    13.340    86.127    0.23E-03    0.25E-04    0.30E-06
   1      7    13.340    65.368    0.22E-03    0.27E-04    0.30E-06
 Optimization of the real space projectors (new method)

 maximal supplied QI-value         = 15.12
 optimisation between [QCUT,QGAM] = [ 13.45, 27.06] = [ 50.69,205.06] Ry 
 Optimized for a Real-space Cutoff    1.40 Angstroem

   l    n(q)    QCUT    max X(q) W(low)/X(q) W(high)/X(q)  e(spline) 
   1     11    13.455     3.180    0.18E-04    0.25E-04    0.55E-07
   1     11    13.455     5.351    0.12E-03    0.15E-03    0.24E-06
   2     10    13.455    66.565    0.13E-03    0.46E-04    0.26E-06
   2     10    13.455    63.466    0.13E-03    0.47E-04    0.27E-06
   0     11    13.455    85.644    0.47E-04    0.16E-04    0.33E-06
   0     11    13.455    44.119    0.43E-04    0.15E-04    0.30E-06
  PAW_PBE C_h 06Feb2004                 :
 energy of atom  1       EATOM= -147.1560
 kinetic energy error for atom=    0.0286 (will be added to EATOM!!)
  PAW_PBE C_h 06Feb2004                 :
 energy of atom  2       EATOM= -147.1560
 kinetic energy error for atom=    0.0286 (will be added to EATOM!!)
  PAW_PBE H 15Jun2001                   :
 energy of atom  3       EATOM=  -12.4884
 kinetic energy error for atom=    0.0002 (will be added to EATOM!!)
  PAW_PBE N_h 06Feb2004                 :
 energy of atom  4       EATOM= -264.5486
 kinetic energy error for atom=    0.0847 (will be added to EATOM!!)
  PAW_PBE O_h 06Feb2004                 :
 energy of atom  5       EATOM= -432.3788
 kinetic energy error for atom=    0.1855 (will be added to EATOM!!)
  PAW_PBE Ru_pv 28Jan2005               :
 energy of atom  6       EATOM=-1873.4746
 kinetic energy error for atom=    0.0017 (will be added to EATOM!!)
 
 
 POSCAR: C C H N O Ru                            
  positions in direct lattice
  velocities in cartesian coordinates
 exchange correlation table for  LEXCH =        8
   RHO(1)=    0.500       N(1)  =     2000
   RHO(2)=  100.500       N(2)  =     4000
 


--------------------------------------------------------------------------------------------------------


 ion  position               nearest neighbor table
   1  0.503  0.586  0.627-  42 1.09  52 1.36  19 1.39
   2  0.438  0.566  0.328-  43 1.09   3 1.39   6 1.39
   3  0.456  0.524  0.381-  38 1.09  49 1.36   2 1.39
   4  0.474  0.615  0.450-  34 1.09  49 1.36   5 1.39
   5  0.456  0.660  0.399-  33 1.09   4 1.39   6 1.40
   6  0.438  0.635  0.337-  32 1.09   2 1.39   5 1.40
   7  0.523  0.330  0.675-  26 1.09   8 1.39  16 1.40
   8  0.497  0.372  0.626-  31 1.09  51 1.36   7 1.39
   9  0.602  0.419  0.606-  51 1.37  10 1.40  14 1.47
  10  0.631  0.378  0.654-  28 1.09  16 1.39   9 1.40
  11  0.740  0.529  0.535-  41 1.09  15 1.39  12 1.40
  12  0.701  0.566  0.490-  37 1.09  13 1.39  11 1.40
  13  0.633  0.554  0.487-  47 1.09  53 1.36  12 1.39
  14  0.640  0.469  0.567-  53 1.37  15 1.40   9 1.47
  15  0.708  0.480  0.573-  36 1.09  11 1.39  14 1.40
  16  0.591  0.332  0.689-  27 1.09  10 1.39   7 1.40
  17  0.362  0.489  0.564-  50 1.37  20 1.40  21 1.46
  18  0.408  0.622  0.691-  48 1.09  22 1.39  19 1.40
  19  0.476  0.626  0.677-  44 1.09   1 1.39  18 1.40
  20  0.293  0.477  0.568-  45 1.09  25 1.39  17 1.40
  21  0.398  0.538  0.604-  52 1.38  22 1.40  17 1.46
  22  0.369  0.578  0.654-  30 1.09  18 1.39  21 1.40
  23  0.373  0.406  0.482-  39 1.09  50 1.35  24 1.39
  24  0.305  0.392  0.484-  40 1.09  23 1.39  25 1.40
  25  0.264  0.428  0.528-  46 1.09  20 1.39  24 1.40
  26  0.490  0.295  0.701-   7 1.09
  27  0.613  0.300  0.727-  16 1.09
  28  0.684  0.381  0.665-  10 1.09
  29  0.542  0.362  0.461-  54 0.97
  30  0.316  0.573  0.664-  22 1.09
  31  0.444  0.371  0.614-   8 1.09
  32  0.424  0.668  0.296-   6 1.09
  33  0.456  0.713  0.410-   5 1.09
  34  0.488  0.634  0.499-   4 1.09
  35  0.569  0.418  0.415-  54 0.98
  36  0.738  0.450  0.608-  15 1.09
  37  0.723  0.605  0.459-  12 1.09
  38  0.456  0.470  0.375-   3 1.09
  39  0.406  0.379  0.449-  23 1.09
  40  0.284  0.353  0.452-  24 1.09
  41  0.793  0.537  0.539-  11 1.09
  42  0.556  0.588  0.614-   1 1.09
  43  0.424  0.543  0.280-   2 1.09
  44  0.509  0.660  0.704-  19 1.09
  45  0.263  0.506  0.603-  20 1.09
  46  0.211  0.418  0.531-  25 1.09
  47  0.601  0.582  0.453-  13 1.09
  48  0.385  0.653  0.729-  18 1.09
  49  0.474  0.548  0.441-   4 1.36   3 1.36  55 2.12
  50  0.402  0.453  0.521-  23 1.35  17 1.37  55 2.06
  51  0.535  0.416  0.592-   8 1.36   9 1.37  55 2.06
  52  0.465  0.543  0.590-   1 1.36  21 1.38  55 2.01
  53  0.601  0.507  0.524-  13 1.36  14 1.37  55 2.08
  54  0.531  0.406  0.442-  29 0.97  35 0.98  55 2.24
  55  0.501  0.481  0.519-  52 2.01  50 2.06  51 2.06  53 2.08  49 2.12  54 2.24
 
  LATTYP: Found a simple cubic cell.
 ALAT       =    20.0000000000
  
  Lattice vectors:
  
 A1 = (  20.0000000000,   0.0000000000,   0.0000000000)
 A2 = (   0.0000000000,  20.0000000000,   0.0000000000)
 A3 = (   0.0000000000,   0.0000000000,  20.0000000000)


Analysis of symmetry for initial positions (statically):
=====================================================================
 Subroutine PRICEL returns:
 Original cell was already a primitive cell.
 

 Routine SETGRP: Setting up the symmetry group for a 
 simple cubic supercell.


 Subroutine GETGRP returns: Found  1 space group operations
 (whereof  1 operations were pure point group operations)
 out of a pool of 48 trial point group operations.


The static configuration has the point symmetry C_1 .


Analysis of symmetry for dynamics (positions and initial velocities):
=====================================================================
 Subroutine PRICEL returns:
 Original cell was already a primitive cell.
 

 Routine SETGRP: Setting up the symmetry group for a 
 simple cubic supercell.


 Subroutine GETGRP returns: Found  1 space group operations
 (whereof  1 operations were pure point group operations)
 out of a pool of 48 trial point group operations.


The dynamic configuration has the point symmetry C_1 .


Analysis of constrained symmetry for selective dynamics:
=====================================================================
 Subroutine PRICEL returns:
 Original cell was already a primitive cell.
 

 Routine SETGRP: Setting up the symmetry group for a 
 simple cubic supercell.


 Subroutine GETGRP returns: Found  1 space group operations
 (whereof  1 operations were pure point group operations)
 out of a pool of 48 trial point group operations.


The constrained configuration has the point symmetry C_1 .


Analysis of magnetic symmetry:
=====================================================================
 Subroutine PRICEL returns:
 Original cell was already a primitive cell.
 

 Subroutine MAGSYM returns: Found  1 space group operations
 (whereof  1 operations were pure point group operations)
 out of a pool of  1 trial space group operations
 (whereof  1 operations were pure point group operations)
 and found also     1 'primitive' translations


The magnetic configuration has the point symmetry C_1 .
 
 
 KPOINTS: K-Points                                

Automatic generation of k-mesh.
Space group operators:
 irot       det(A)        alpha          n_x          n_y          n_z        tau_x        tau_y        tau_z
    1     1.000000     0.000000     1.000000     0.000000     0.000000     0.000000     0.000000     0.000000
 
 Subroutine IBZKPT returns following result:
 ===========================================
 
 Found      1 irreducible k-points:
 
 Following reciprocal coordinates:
            Coordinates               Weight
  0.000000  0.000000  0.000000      1.000000
 
 Following cartesian coordinates:
            Coordinates               Weight
  0.000000  0.000000  0.000000      1.000000
 


--------------------------------------------------------------------------------------------------------




 Dimension of arrays:
   k-points           NKPTS =      1   k-points in BZ     NKDIM =      1   number of bands    NBANDS=    128
   number of dos      NEDOS =    301   number of ions     NIONS =     55
   non local maximal  LDIM  =      6   non local SUM 2l+1 LMDIM =     18
   total plane-waves  NPLWV = ******
   max r-space proj   IRMAX =   8473   max aug-charges    IRDMAX= 268848
   dimension x,y,z NGX =   180 NGY =  180 NGZ =  180
   dimension x,y,z NGXF=   360 NGYF=  360 NGZF=  360
   support grid    NGXF=   720 NGYF=  720 NGZF=  720
   ions per type =               1  24  23   5   1   1
 NGX,Y,Z   is equivalent  to a cutoff of  14.96, 14.96, 14.96 a.u.
 NGXF,Y,Z  is equivalent  to a cutoff of  29.92, 29.92, 29.92 a.u.


 I would recommend the setting:
   dimension x,y,z NGX =   173 NGY =  173 NGZ =  173
 SYSTEM =  c2_oh2_ruthenium_mol                    
 POSCAR =  C C H N O Ru                            

 Startparameter for this run:
   NWRITE =      2    write-flag & timer
   PREC   = accura    normal or accurate (medium, high low for compatibility)
   ISTART =      0    job   : 0-new  1-cont  2-samecut
   ICHARG =      2    charge: 1-file 2-atom 10-const
   ISPIN  =      2    spin polarized calculation?
   LNONCOLLINEAR =      F non collinear calculations
   LSORBIT =      F    spin-orbit coupling
   INIWAV =      1    electr: 0-lowe 1-rand  2-diag
   LASPH  =      F    aspherical Exc in radial PAW
   METAGGA=      F    non-selfconsistent MetaGGA calc.

 Electronic Relaxation 1
   ENCUT  =  700.0 eV  51.45 Ry    7.17 a.u.  43.15 43.15 43.15*2*pi/ulx,y,z
   ENINI  =  700.0     initial cutoff
   ENAUG  =  946.8 eV  augmentation charge cutoff
   NELM   =     60;   NELMIN=  2; NELMDL= -5     # of ELM steps 
   EDIFF  = 0.1E-04   stopping-criterion for ELM
   LREAL  =      T    real-space projection
   NLSPLINE    = F    spline interpolate recip. space projectors
   LCOMPAT=      F    compatible to vasp.4.4
   GGA_COMPAT  = T    GGA compatible to vasp.4.4-vasp.4.6
   LMAXPAW     = -100 max onsite density
   LMAXMIX     =    2 max onsite mixed and CHGCAR
   VOSKOWN=      0    Vosko Wilk Nusair interpolation
   ROPT   =   -0.00025  -0.00025  -0.00025  -0.00025
   ROPT   =   -0.00025  -0.00025
 Ionic relaxation
   EDIFFG = -.1E-01   stopping-criterion for IOM
   NSW    =      0    number of steps for IOM
   NBLOCK =      1;   KBLOCK =      1    inner block; outer block 
   IBRION =     -1    ionic relax: 0-MD 1-quasi-New 2-CG
   NFREE  =      0    steps in history (QN), initial steepest desc. (CG)
   ISIF   =      2    stress and relaxation
   IWAVPR =     10    prediction:  0-non 1-charg 2-wave 3-comb
   ISYM   =      2    0-nonsym 1-usesym 2-fastsym
   LCORR  =      T    Harris-Foulkes like correction to forces

   POTIM  = 0.5000    time-step for ionic-motion
   TEIN   =    0.0    initial temperature
   TEBEG  =    0.0;   TEEND  =   0.0 temperature during run
   SMASS  =  -3.00    Nose mass-parameter (am)
   estimated Nose-frequenzy (Omega)   =  0.10E-29 period in steps =****** mass=  -0.914E-26a.u.
   SCALEE = 1.0000    scale energy and forces
   NPACO  =    256;   APACO  = 16.0  distance and # of slots for P.C.
   PSTRESS=    0.0 pullay stress

  Mass of Ions in am
   POMASS =  12.01 12.01  1.00 14.00 16.00101.07
  Ionic Valenz
   ZVAL   =   4.50  4.00  1.00  5.00  6.00 14.00
  Atomic Wigner-Seitz radii
   RWIGS  =  -1.00 -1.00 -1.00 -1.00 -1.00 -1.00
  virtual crystal weights 
   VCA    =   1.00  1.00  1.00  1.00  1.00  1.00
   NELECT =     166.0000    total number of electrons
   NUPDOWN=       0.0000    fix difference up-down

 DOS related values:
   EMIN   =  10.00;   EMAX   =-10.00  energy-range for DOS
   EFERMI =   0.00
   ISMEAR =     0;   SIGMA  =   0.01  broadening in eV -4-tet -1-fermi 0-gaus

 Electronic relaxation 2 (details)
   IALGO  =     38    algorithm
   LDIAG  =      T    sub-space diagonalisation (order eigenvalues)
   LSUBROT=      F    optimize rotation matrix (better conditioning)
   TURBO    =      0    0=normal 1=particle mesh
   IRESTART =      0    0=no restart 2=restart with 2 vectors
   NREBOOT  =      0    no. of reboots
   NMIN     =      0    reboot dimension
   EREF     =   0.00    reference energy to select bands
   IMIX   =      4    mixing-type and parameters
     AMIX     =   0.40;   BMIX     =  2.00
     AMIX_MAG =   1.60;   BMIX_MAG =  2.00
     AMIN     =   0.10
     WC   =   100.;   INIMIX=   1;  MIXPRE=   1;  MAXMIX= -45

 Intra band minimization:
   WEIMIN = 0.0000     energy-eigenvalue tresh-hold
   EBREAK =  0.20E-07  absolut break condition
   DEPER  =   0.30     relativ break condition  

   TIME   =   0.05     timestep for ELM

  volume/ion in A,a.u.               =     145.45       981.58
  Fermi-wavevector in a.u.,A,eV,Ry     =   0.449864  0.850119  2.753510  0.202377
  Thomas-Fermi vector in A             =   1.430192
 
 Write flags
   LWAVE  =      T    write WAVECAR
   LCHARG =      T    write CHGCAR
   LVTOT  =      F    write LOCPOT, total local potential
   LVHAR  =      F    write LOCPOT, Hartree potential only
   LELF   =      F    write electronic localiz. function (ELF)
   LORBIT =      0    0 simple, 1 ext, 2 COOP (PROOUT)


 Dipole corrections
   LMONO  =      F    monopole corrections only (constant potential shift)
   LDIPOL =      F    correct potential (dipole corrections)
   IDIPOL =      0    1-x, 2-y, 3-z, 4-all directions 
   EPSILON=  1.0000000 bulk dielectric constant

 Core level calculations are selected ICORELEVEL =  2
  CLNT =           1       CLN =     1
  CLL  =           0       CLZ = 0.500
 Exchange correlation treatment:
   GGA     =    --    GGA type
   LEXCH   =     8    internal setting for exchange type
   VOSKOWN=      0    Vosko Wilk Nusair interpolation
   LHFCALC =     F    Hartree Fock is set to
   LHFONE  =     F    Hartree Fock one center treatment
   AEXX    =    0.0000 exact exchange contribution

 Linear response parameters
   LEPSILON=     F    determine dielectric tensor
   LRPA    =     F    only Hartree local field effects (RPA)
   LNABLA  =     F    use nabla operator in PAW spheres
   LVEL    =     F    velocity operator in full k-point grid
   LINTERFAST=   F  fast interpolation
   KINTER  =     0    interpolate to denser k-point grid
   CSHIFT  =0.1000    complex shift for real part using Kramers Kronig
   OMEGAMAX=  -1.0    maximum frequency
   DEG_THRESHOLD= 0.2000000E-02 threshold for treating states as degnerate
   RTIME   =    0.100 relaxation time in fs

 Orbital magnetization related:
   ORBITALMAG=     F  switch on orbital magnetization
   LCHIMAG   =     F  perturbation theory with respect to B field
   DQ        =  0.001000  dq finite difference perturbation B field



--------------------------------------------------------------------------------------------------------


 Static calculation
 charge density and potential will be updated during run
 spin polarized calculation
 Variant of blocked Davidson
 Davidson routine will perform the subspace rotation
 perform sub-space diagonalisation
    after iterative eigenvector-optimisation
 modified Broyden-mixing scheme, WC =      100.0
 initial mixing is a Kerker type mixing with AMIX =  0.4000 and BMIX =      2.0000
 Hartree-type preconditioning will be used
 using additional bands           45
 real space projection scheme for non local part
 use partial core corrections
 calculate Harris-corrections to forces 
   (improved forces if not selfconsistent)
 use gradient corrections 
 use of overlap-Matrix (Vanderbilt PP)
 Gauss-broadening in eV      SIGMA  =   0.01


--------------------------------------------------------------------------------------------------------


  energy-cutoff  :      700.00
  volume of cell :     8000.00
      direct lattice vectors                 reciprocal lattice vectors
    20.000000000  0.000000000  0.000000000     0.050000000  0.000000000  0.000000000
     0.000000000 20.000000000  0.000000000     0.000000000  0.050000000  0.000000000
     0.000000000  0.000000000 20.000000000     0.000000000  0.000000000  0.050000000

  length of vectors
    20.000000000 20.000000000 20.000000000     0.050000000  0.050000000  0.050000000


 
 k-points in units of 2pi/SCALE and weight: K-Points                                
   0.00000000  0.00000000  0.00000000       1.000
 
 k-points in reciprocal lattice and weights: K-Points                                
   0.00000000  0.00000000  0.00000000       1.000
 
 position of ions in fractional coordinates (direct lattice) 
   0.50295190  0.58590820  0.62668073
   0.43793752  0.56561110  0.32757008
   0.45581208  0.52423376  0.38051465
   0.47372925  0.61530131  0.44986522
   0.45595175  0.65963312  0.39935201
   0.43785737  0.63472201  0.33675972
   0.52307882  0.32955005  0.67474498
   0.49710163  0.37190466  0.62618823
   0.60227374  0.41933300  0.60593616
   0.63096398  0.37761922  0.65422416
   0.73964927  0.52855915  0.53463181
   0.70082162  0.56612858  0.49044049
   0.63257913  0.55363620  0.48652424
   0.63952130  0.46927713  0.56732841
   0.70843899  0.47974495  0.57314689
   0.59134754  0.33224398  0.68903016
   0.36211554  0.48866484  0.56417415
   0.40790931  0.62211625  0.69058213
   0.47619960  0.62606623  0.67660612
   0.29334713  0.47671938  0.56830116
   0.39825425  0.53800137  0.60426081
   0.36904589  0.57756069  0.65398228
   0.37289802  0.40579857  0.48223443
   0.30486503  0.39173492  0.48443166
   0.26422003  0.42785518  0.52821594
   0.48989745  0.29510618  0.70074864
   0.61334240  0.29968355  0.72673159
   0.68424189  0.38076917  0.66478776
   0.54225374  0.36233861  0.46129841
   0.31579090  0.57306911  0.66420366
   0.44416348  0.37118871  0.61364770
   0.42392665  0.66833230  0.29622671
   0.45642762  0.71313270  0.40950260
   0.48809132  0.63358802  0.49907234
   0.56912778  0.41808713  0.41480476
   0.73767440  0.44963919  0.60776512
   0.72277620  0.60481012  0.45904817
   0.45570253  0.47012894  0.37468790
   0.40614333  0.37888556  0.44852541
   0.28443799  0.35306162  0.45202062
   0.79326502  0.53703787  0.53892527
   0.55589708  0.58769132  0.61440612
   0.42412006  0.54328620  0.27986105
   0.50894741  0.65984570  0.70400156
   0.26265982  0.50568523  0.60265428
   0.21072272  0.41813760  0.53105039
   0.60090654  0.58197914  0.45254259
   0.38544357  0.65296704  0.72941133
   0.47424490  0.54794204  0.44140236
   0.40180479  0.45306079  0.52108436
   0.53520702  0.41608490  0.59173240
   0.46544808  0.54254992  0.59041194
   0.60138410  0.50650621  0.52397638
   0.53073984  0.40562607  0.44215451
   0.50088568  0.48087016  0.51934246
 
 position of ions in cartesian coordinates  (Angst):
  10.05903801 11.71816400 12.53361469
   8.75875044 11.31222209  6.55140167
   9.11624161 10.48467523  7.61029296
   9.47458509 12.30602619  8.99730442
   9.11903505 13.19266234  7.98704025
   8.75714739 12.69444028  6.73519441
  10.46157638  6.59100110 13.49489953
   9.94203263  7.43809325 12.52376455
  12.04547477  8.38665999 12.11872314
  12.61927957  7.55238445 13.08448329
  14.79298537 10.57118301 10.69263621
  14.01643234 11.32257164  9.80880974
  12.65158254 11.07272405  9.73048485
  12.79042597  9.38554253 11.34656829
  14.16877978  9.59489901 11.46293786
  11.82695089  6.64487969 13.78060313
   7.24231077  9.77329687 11.28348299
   8.15818611 12.44232505 13.81164268
   9.52399198 12.52132464 13.53212240
   5.86694270  9.53438759 11.36602327
   7.96508499 10.76002740 12.08521614
   7.38091777 11.55121387 13.07964553
   7.45796037  8.11597149  9.64468853
   6.09730063  7.83469839  9.68863321
   5.28440067  8.55710369 10.56431882
   9.79794892  5.90212351 14.01497288
  12.26684793  5.99367109 14.53463185
  13.68483783  7.61538334 13.29575520
  10.84507475  7.24677213  9.22596819
   6.31581791 11.46138226 13.28407311
   8.88326966  7.42377422 12.27295397
   8.47853309 13.36664601  5.92453423
   9.12855243 14.26265408  8.19005201
   9.76182647 12.67176037  9.98144677
  11.38255564  8.36174255  8.29609511
  14.75348806  8.99278384 12.15530242
  14.45552391 12.09620238  9.18096343
   9.11405064  9.40257887  7.49375804
   8.12286663  7.57771114  8.97050829
   5.68875982  7.06123239  9.04041232
  15.86530045 10.74075733 10.77850539
  11.11794158 11.75382641 12.28812234
   8.48240128 10.86572407  5.59722093
  10.17894811 13.19691406 14.08003122
   5.25319634 10.11370460 12.05308551
   4.21445446  8.36275200 10.62100772
  12.01813087 11.63958272  9.05085175
   7.70887141 13.05934086 14.58822659
   9.48489793 10.95884088  8.82804729
   8.03609572  9.06121573 10.42168714
  10.70414049  8.32169803 11.83464804
   9.30896151 10.85099836 11.80823871
  12.02768196 10.13012430 10.47952760
  10.61479684  8.11252146  8.84309019
  10.01771355  9.61740316 10.38684921
 


--------------------------------------------------------------------------------------------------------


 k-point  1 :   0.0000 0.0000 0.0000  plane waves:  336427

 maximum and minimum number of plane-waves per node :    336427   336427

 maximum number of plane-waves:    336427
 maximum index in each direction: 
   IXMAX=   43   IYMAX=   43   IZMAX=   43
   IXMIN=  -43   IYMIN=  -43   IZMIN=  -43

 NGX is ok and might be reduce to 174
 NGY is ok and might be reduce to 174
 NGZ is ok and might be reduce to 174

 serial   3D FFT for wavefunctions
 parallel 3D FFT for charge:
    minimum data exchange during FFTs selected (reduces bandwidth)


 total amount of memory used by VASP on root node   877132. kBytes
========================================================================

   base      :      30000. kBytes
   nonlr-proj:      19361. kBytes
   fftplans  :     269516. kBytes
   grid      :     534988. kBytes
   one-center:       1710. kBytes
   wavefun   :      21557. kBytes
 
     INWAV:  cpu time    0.00: real time    0.00
 Broyden mixing: mesh for mixing (old mesh)
   NGX = 87   NGY = 87   NGZ = 87
  (NGX  =360   NGY  =360   NGZ  =360)
  gives a total of 658503 points

 initial charge density was supplied:
 charge density of overlapping atoms calculated
 number of electron     168.5000000 magnetization       0.0000000
 keeping initial charge density in first step


--------------------------------------------------------------------------------------------------------


 Maximum index for non-local projection operator         8166
 Maximum index for augmentation-charges         3214 (set IRDMAX)


--------------------------------------------------------------------------------------------------------


 First call to EWALD:  gamma=   0.089
 Maximum number of real-space cells 3x 3x 3
 Maximum number of reciprocal cells 3x 3x 3

 FEWALD executed in parallel
    FEWALD:  cpu time    0.00: real time    0.00


----------------------------------------- Iteration    1(   1)  ---------------------------------------


    POTLOK:  cpu time    4.86: real time    4.89
    SETDIJ:  cpu time    3.00: real time    3.00
     EDDAV:  cpu time   14.93: real time   15.81
       DOS:  cpu time    0.02: real time    0.02
    --------------------------------------------
      LOOP:  cpu time   22.82: real time   23.73

 eigenvalue-minimisations  :   768
 total energy-change (2. order) : 0.9096917E+03  (-0.5881097E+04)
 number of electron     168.5000000 magnetization       0.0000000
 augmentation part      168.5000000 magnetization       0.0000000

 Free energy of the ion-electron system (eV)
  ---------------------------------------------------
  alpha Z        PSCENC =        12.91687988
  Ewald energy   TEWEN  =     23324.50557372
  -Hartree energ DENC   =    -28926.52131641
  -exchange      EXHF   =         0.00000000
  -V(xc)+E(xc)   XCENC  =       400.96409885
  PAW double counting   =      5890.45591622    -5710.10246236
  entropy T*S    EENTRO =        -0.00000508
  eigenvalues    EBANDS =     -1675.92693551
  atomic energy  EATOM  =      7593.39991119
  ---------------------------------------------------
  free energy    TOTEN  =       909.69166050 eV

  energy without entropy =      909.69166559  energy(sigma->0) =      909.69166305


--------------------------------------------------------------------------------------------------------




----------------------------------------- Iteration    1(   2)  ---------------------------------------


     EDDAV:  cpu time   19.45: real time   20.42
       DOS:  cpu time    0.01: real time    0.01
    --------------------------------------------
      LOOP:  cpu time   19.46: real time   20.44

 eigenvalue-minimisations  :  1024
 total energy-change (2. order) :-0.9781462E+03  (-0.9717236E+03)
 number of electron     168.5000000 magnetization       0.0000000
 augmentation part      168.5000000 magnetization       0.0000000

 Free energy of the ion-electron system (eV)
  ---------------------------------------------------
  alpha Z        PSCENC =        12.91687988
  Ewald energy   TEWEN  =     23324.50557372
  -Hartree energ DENC   =    -28926.52131641
  -exchange      EXHF   =         0.00000000
  -V(xc)+E(xc)   XCENC  =       400.96409885
  PAW double counting   =      5890.45591622    -5710.10246236
  entropy T*S    EENTRO =        -0.00000000
  eigenvalues    EBANDS =     -2654.07315455
  atomic energy  EATOM  =      7593.39991119
  ---------------------------------------------------
  free energy    TOTEN  =       -68.45455345 eV

  energy without entropy =      -68.45455345  energy(sigma->0) =      -68.45455345


--------------------------------------------------------------------------------------------------------




----------------------------------------- Iteration    1(   3)  ---------------------------------------


     EDDAV:  cpu time   15.26: real time   16.08
       DOS:  cpu time    0.01: real time    0.01
    --------------------------------------------
      LOOP:  cpu time   15.27: real time   16.10

 eigenvalue-minimisations  :   768
 total energy-change (2. order) :-0.3226351E+03  (-0.3220614E+03)
 number of electron     168.5000000 magnetization       0.0000000
 augmentation part      168.5000000 magnetization       0.0000000

 Free energy of the ion-electron system (eV)
  ---------------------------------------------------
  alpha Z        PSCENC =        12.91687988
  Ewald energy   TEWEN  =     23324.50557372
  -Hartree energ DENC   =    -28926.52131641
  -exchange      EXHF   =         0.00000000
  -V(xc)+E(xc)   XCENC  =       400.96409885
  PAW double counting   =      5890.45591622    -5710.10246236
  entropy T*S    EENTRO =        -0.00000000
  eigenvalues    EBANDS =     -2976.70822702
  atomic energy  EATOM  =      7593.39991119
  ---------------------------------------------------
  free energy    TOTEN  =      -391.08962593 eV

  energy without entropy =     -391.08962593  energy(sigma->0) =     -391.08962593


--------------------------------------------------------------------------------------------------------




----------------------------------------- Iteration    1(   4)  ---------------------------------------


     EDDAV:  cpu time   12.93: real time   13.56
       DOS:  cpu time    0.01: real time    0.01
    --------------------------------------------
      LOOP:  cpu time   12.94: real time   13.57

 eigenvalue-minimisations  :   640
 total energy-change (2. order) :-0.2035491E+02  (-0.2032505E+02)
 number of electron     168.5000000 magnetization       0.0000000
 augmentation part      168.5000000 magnetization       0.0000000

 Free energy of the ion-electron system (eV)
  ---------------------------------------------------
  alpha Z        PSCENC =        12.91687988
  Ewald energy   TEWEN  =     23324.50557372
  -Hartree energ DENC   =    -28926.52131641
  -exchange      EXHF   =         0.00000000
  -V(xc)+E(xc)   XCENC  =       400.96409885
  PAW double counting   =      5890.45591622    -5710.10246236
  entropy T*S    EENTRO =        -0.00000000
  eigenvalues    EBANDS =     -2997.06314047
  atomic energy  EATOM  =      7593.39991119
  ---------------------------------------------------
  free energy    TOTEN  =      -411.44453937 eV

  energy without entropy =     -411.44453937  energy(sigma->0) =     -411.44453937


--------------------------------------------------------------------------------------------------------




----------------------------------------- Iteration    1(   5)  ---------------------------------------


     EDDAV:  cpu time   17.23: real time   18.15
       DOS:  cpu time    0.00: real time    0.00
    CHARGE:  cpu time    5.57: real time    5.58
    MIXING:  cpu time    0.06: real time    0.06
    --------------------------------------------
      LOOP:  cpu time   22.86: real time   23.80

 eigenvalue-minimisations  :   896
 total energy-change (2. order) :-0.3572359E+00  (-0.3570808E+00)
 number of electron     166.0000000 magnetization      -0.0000000
 augmentation part        3.5435094 magnetization      -0.0000094

 Broyden mixing:
  rms(total) = 0.57472E+01    rms(broyden)= 0.57465E+01
  rms(prec ) = 0.61301E+01
  weight for this iteration     100.00

 Free energy of the ion-electron system (eV)
  ---------------------------------------------------
  alpha Z        PSCENC =        12.91687988
  Ewald energy   TEWEN  =     23324.50557372
  -Hartree energ DENC   =    -28926.52131641
  -exchange      EXHF   =         0.00000000
  -V(xc)+E(xc)   XCENC  =       400.96409885
  PAW double counting   =      5890.45591622    -5710.10246236
  entropy T*S    EENTRO =        -0.00000000
  eigenvalues    EBANDS =     -2997.42037637
  atomic energy  EATOM  =      7593.39991119
  ---------------------------------------------------
  free energy    TOTEN  =      -411.80177528 eV

  energy without entropy =     -411.80177528  energy(sigma->0) =     -411.80177528


--------------------------------------------------------------------------------------------------------




----------------------------------------- Iteration    1(   6)  ---------------------------------------


    POTLOK:  cpu time    4.71: real time    4.73
    SETDIJ:  cpu time    3.00: real time    3.01
     EDDAV:  cpu time   12.94: real time   13.65
       DOS:  cpu time    0.08: real time    0.08
    CHARGE:  cpu time    5.39: real time    5.39
    MIXING:  cpu time    0.18: real time    0.18
    --------------------------------------------
      LOOP:  cpu time   26.30: real time   27.04

 eigenvalue-minimisations  :   640
 total energy-change (2. order) : 0.1842171E+02  (-0.3694719E+02)
 number of electron     166.0000000 magnetization      -0.0000000
 augmentation part        6.4948313 magnetization      -0.0000289

 Broyden mixing:
  rms(total) = 0.38762E+01    rms(broyden)= 0.38760E+01
  rms(prec ) = 0.40473E+01
  weight for this iteration     100.00

 eigenvalues of (default mixing * dielectric matrix)
  average eigenvalue GAMMA=   1.0458
  1.0458

 Free energy of the ion-electron system (eV)
  ---------------------------------------------------
  alpha Z        PSCENC =        12.91687988
  Ewald energy   TEWEN  =     23324.50557372
  -Hartree energ DENC   =    -28932.27107725
  -exchange      EXHF   =         0.00000000
  -V(xc)+E(xc)   XCENC  =       406.48891461
  PAW double counting   =     20888.34538912   -20720.99568459
  entropy T*S    EENTRO =        -0.00000000
  eigenvalues    EBANDS =     -2965.76997152
  atomic energy  EATOM  =      7593.39991119
  ---------------------------------------------------
  free energy    TOTEN  =      -393.38006483 eV

  energy without entropy =     -393.38006483  energy(sigma->0) =     -393.38006483


--------------------------------------------------------------------------------------------------------




----------------------------------------- Iteration    1(   7)  ---------------------------------------


    POTLOK:  cpu time    4.71: real time    4.74
    SETDIJ:  cpu time    3.00: real time    3.00
     EDDAV:  cpu time   12.91: real time   13.58
       DOS:  cpu time    0.08: real time    0.08
    CHARGE:  cpu time    5.45: real time    5.51
    MIXING:  cpu time    0.08: real time    0.08
    --------------------------------------------
      LOOP:  cpu time   26.24: real time   26.99

 eigenvalue-minimisations  :   640
 total energy-change (2. order) : 0.1068908E+02  (-0.2233698E+01)
 number of electron     166.0000000 magnetization      -0.0000000
 augmentation part        5.5733669 magnetization      -0.0001147

 Broyden mixing:
  rms(total) = 0.23756E+01    rms(broyden)= 0.23756E+01
  rms(prec ) = 0.24475E+01
  weight for this iteration     100.00

 eigenvalues of (default mixing * dielectric matrix)
  average eigenvalue GAMMA=   1.4406
  0.7567  2.1244

 Free energy of the ion-electron system (eV)
  ---------------------------------------------------
  alpha Z        PSCENC =        12.91687988
  Ewald energy   TEWEN  =     23324.50557372
  -Hartree energ DENC   =    -29059.75876715
  -exchange      EXHF   =         0.00000000
  -V(xc)+E(xc)   XCENC  =       411.83623184
  PAW double counting   =     36327.22803100   -36155.03115132
  entropy T*S    EENTRO =        -0.00000000
  eigenvalues    EBANDS =     -2837.78769617
  atomic energy  EATOM  =      7593.39991119
  ---------------------------------------------------
  free energy    TOTEN  =      -382.69098701 eV

  energy without entropy =     -382.69098701  energy(sigma->0) =     -382.69098701


--------------------------------------------------------------------------------------------------------




----------------------------------------- Iteration    1(   8)  ---------------------------------------


    POTLOK:  cpu time    4.77: real time    4.79
    SETDIJ:  cpu time    2.99: real time    3.01
     EDDAV:  cpu time   15.26: real time   16.50
       DOS:  cpu time    0.05: real time    0.05
    CHARGE:  cpu time    5.37: real time    5.38
    MIXING:  cpu time    0.08: real time    0.08
    --------------------------------------------
      LOOP:  cpu time   28.53: real time   29.81

 eigenvalue-minimisations  :   768
 total energy-change (2. order) : 0.4222338E+01  (-0.1795548E+01)
 number of electron     166.0000000 magnetization      -0.0000000
 augmentation part        4.8448006 magnetization      -0.0000102

 Broyden mixing:
  rms(total) = 0.95550E+00    rms(broyden)= 0.95546E+00
  rms(prec ) = 0.10411E+01
  weight for this iteration     100.00

 eigenvalues of (default mixing * dielectric matrix)
  average eigenvalue GAMMA=   1.4600
  2.7052  0.8374  0.8374

 Free energy of the ion-electron system (eV)
  ---------------------------------------------------
  alpha Z        PSCENC =        12.91687988
  Ewald energy   TEWEN  =     23324.50557372
  -Hartree energ DENC   =    -29211.78003136
  -exchange      EXHF   =         0.00000000
  -V(xc)+E(xc)   XCENC  =       419.85736209
  PAW double counting   =     69864.88742583   -69689.41471159
  entropy T*S    EENTRO =        -0.00000000
  eigenvalues    EBANDS =     -2692.84105902
  atomic energy  EATOM  =      7593.39991119
  ---------------------------------------------------
  free energy    TOTEN  =      -378.46864926 eV

  energy without entropy =     -378.46864926  energy(sigma->0) =     -378.46864926


--------------------------------------------------------------------------------------------------------




----------------------------------------- Iteration    1(   9)  ---------------------------------------


    POTLOK:  cpu time    4.71: real time    4.73
    SETDIJ:  cpu time    2.99: real time    3.00
     EDDAV:  cpu time   15.17: real time   16.40
       DOS:  cpu time    0.05: real time    0.05
    CHARGE:  cpu time    5.44: real time    5.58
    MIXING:  cpu time    0.14: real time    0.14
    --------------------------------------------
      LOOP:  cpu time   28.49: real time   29.89

 eigenvalue-minimisations  :   768
 total energy-change (2. order) : 0.1174854E+01  (-0.5483943E+00)
 number of electron     166.0000000 magnetization      -0.0000000
 augmentation part        5.2353981 magnetization      -0.0000152

 Broyden mixing:
  rms(total) = 0.36212E+00    rms(broyden)= 0.36209E+00
  rms(prec ) = 0.40003E+00
  weight for this iteration     100.00

 eigenvalues of (default mixing * dielectric matrix)
  average eigenvalue GAMMA=   1.3229
  2.5165  1.1839  0.7956  0.7956

 Free energy of the ion-electron system (eV)
  ---------------------------------------------------
  alpha Z        PSCENC =        12.91687988
  Ewald energy   TEWEN  =     23324.50557372
  -Hartree energ DENC   =    -29229.75458897
  -exchange      EXHF   =         0.00000000
  -V(xc)+E(xc)   XCENC  =       422.51073694
  PAW double counting   =     82920.56254678   -82747.01300275
  entropy T*S    EENTRO =        -0.00000000
  eigenvalues    EBANDS =     -2674.42185195
  atomic energy  EATOM  =      7593.39991119
  ---------------------------------------------------
  free energy    TOTEN  =      -377.29379516 eV

  energy without entropy =     -377.29379516  energy(sigma->0) =     -377.29379516


--------------------------------------------------------------------------------------------------------




----------------------------------------- Iteration    1(  10)  ---------------------------------------


    POTLOK:  cpu time    4.70: real time    4.72
    SETDIJ:  cpu time    2.98: real time    2.99
     EDDAV:  cpu time   15.21: real time   16.47
       DOS:  cpu time    0.04: real time    0.04
    CHARGE:  cpu time    5.39: real time    5.40
    MIXING:  cpu time    0.16: real time    0.16
    --------------------------------------------
      LOOP:  cpu time   28.49: real time   29.79

 eigenvalue-minimisations  :   768
 total energy-change (2. order) : 0.3695700E-01  (-0.4005928E-01)
 number of electron     166.0000000 magnetization      -0.0000000
 augmentation part        5.3349019 magnetization      -0.0000021

 Broyden mixing:
  rms(total) = 0.25599E+00    rms(broyden)= 0.25599E+00
  rms(prec ) = 0.30011E+00
  weight for this iteration     100.00

 eigenvalues of (default mixing * dielectric matrix)
  average eigenvalue GAMMA=   1.3969
  2.4536  1.8681  0.8439  0.8439  0.9749

 Free energy of the ion-electron system (eV)
  ---------------------------------------------------
  alpha Z        PSCENC =        12.91687988
  Ewald energy   TEWEN  =     23324.50557372
  -Hartree energ DENC   =    -29216.07851712
  -exchange      EXHF   =         0.00000000
  -V(xc)+E(xc)   XCENC  =       422.44610237
  PAW double counting   =     81328.56997812   -81155.54245134
  entropy T*S    EENTRO =        -0.00000000
  eigenvalues    EBANDS =     -2687.47431498
  atomic energy  EATOM  =      7593.39991119
  ---------------------------------------------------
  free energy    TOTEN  =      -377.25683816 eV

  energy without entropy =     -377.25683816  energy(sigma->0) =     -377.25683816


--------------------------------------------------------------------------------------------------------




----------------------------------------- Iteration    1(  11)  ---------------------------------------


    POTLOK:  cpu time    4.71: real time    4.73
    SETDIJ:  cpu time    2.99: real time    3.00
     EDDAV:  cpu time   15.26: real time   16.48
       DOS:  cpu time    0.05: real time    0.05
    CHARGE:  cpu time    5.28: real time    5.30
    MIXING:  cpu time    0.14: real time    0.14
    --------------------------------------------
      LOOP:  cpu time   28.44: real time   29.70

 eigenvalue-minimisations  :   768
 total energy-change (2. order) : 0.1407879E+00  (-0.1602800E-01)
 number of electron     166.0000000 magnetization      -0.0000000
 augmentation part        5.2855846 magnetization       0.0000012

 Broyden mixing:
  rms(total) = 0.10458E+00    rms(broyden)= 0.10458E+00
  rms(prec ) = 0.14846E+00
  weight for this iteration     100.00

 eigenvalues of (default mixing * dielectric matrix)
  average eigenvalue GAMMA=   1.4752
  2.6138  2.6138  0.8629  0.8629  0.9489  0.9489

 Free energy of the ion-electron system (eV)
  ---------------------------------------------------
  alpha Z        PSCENC =        12.91687988
  Ewald energy   TEWEN  =     23324.50557372
  -Hartree energ DENC   =    -29214.04562227
  -exchange      EXHF   =         0.00000000
  -V(xc)+E(xc)   XCENC  =       423.17671676
  PAW double counting   =     81878.34709765   -81705.13065551
  entropy T*S    EENTRO =        -0.00000000
  eigenvalues    EBANDS =     -2690.28595172
  atomic energy  EATOM  =      7593.39991119
  ---------------------------------------------------
  free energy    TOTEN  =      -377.11605029 eV

  energy without entropy =     -377.11605029  energy(sigma->0) =     -377.11605029


--------------------------------------------------------------------------------------------------------




----------------------------------------- Iteration    1(  12)  ---------------------------------------


    POTLOK:  cpu time    4.71: real time    4.72
    SETDIJ:  cpu time    2.98: real time    2.99
     EDDAV:  cpu time   15.28: real time   16.52
       DOS:  cpu time    0.05: real time    0.05
    CHARGE:  cpu time    5.42: real time    5.43
    MIXING:  cpu time    0.12: real time    0.12
    --------------------------------------------
      LOOP:  cpu time   28.57: real time   29.84

 eigenvalue-minimisations  :   768
 total energy-change (2. order) : 0.7261839E-01  (-0.8084420E-02)
 number of electron     166.0000000 magnetization      -0.0000000
 augmentation part        5.2524987 magnetization       0.0000026

 Broyden mixing:
  rms(total) = 0.65558E-01    rms(broyden)= 0.65555E-01
  rms(prec ) = 0.97278E-01
  weight for this iteration     100.00

 eigenvalues of (default mixing * dielectric matrix)
  average eigenvalue GAMMA=   1.4444
  2.7830  2.7830  0.8579  0.8579  1.0195  1.0195  0.7902

 Free energy of the ion-electron system (eV)
  ---------------------------------------------------
  alpha Z        PSCENC =        12.91687988
  Ewald energy   TEWEN  =     23324.50557372
  -Hartree energ DENC   =    -29208.59646388
  -exchange      EXHF   =         0.00000000
  -V(xc)+E(xc)   XCENC  =       423.76451917
  PAW double counting   =     81634.94505935   -81461.66111821
  entropy T*S    EENTRO =        -0.00000000
  eigenvalues    EBANDS =     -2696.31779313
  atomic energy  EATOM  =      7593.39991119
  ---------------------------------------------------
  free energy    TOTEN  =      -377.04343191 eV

  energy without entropy =     -377.04343191  energy(sigma->0) =     -377.04343191


--------------------------------------------------------------------------------------------------------




----------------------------------------- Iteration    1(  13)  ---------------------------------------


    POTLOK:  cpu time    4.78: real time    4.80
    SETDIJ:  cpu time    2.97: real time    2.99
     EDDAV:  cpu time   15.16: real time   16.38
       DOS:  cpu time    0.05: real time    0.06
    CHARGE:  cpu time    5.33: real time    5.36
    MIXING:  cpu time    0.15: real time    0.15
    --------------------------------------------
      LOOP:  cpu time   28.45: real time   29.72

 eigenvalue-minimisations  :   768
 total energy-change (2. order) : 0.2002822E-01  (-0.1852396E-02)
 number of electron     166.0000000 magnetization      -0.0000000
 augmentation part        5.2569519 magnetization      -0.0000007

 Broyden mixing:
  rms(total) = 0.47245E-01    rms(broyden)= 0.47244E-01
  rms(prec ) = 0.70818E-01
  weight for this iteration     100.00

 eigenvalues of (default mixing * dielectric matrix)
  average eigenvalue GAMMA=   1.5393
  3.0563  3.0563  1.6516  1.0973  1.0973  0.8607  0.8607  0.6342

 Free energy of the ion-electron system (eV)
  ---------------------------------------------------
  alpha Z        PSCENC =        12.91687988
  Ewald energy   TEWEN  =     23324.50557372
  -Hartree energ DENC   =    -29201.32977124
  -exchange      EXHF   =         0.00000000
  -V(xc)+E(xc)   XCENC  =       424.02956139
  PAW double counting   =     81221.63491305   -81048.43317083
  entropy T*S    EENTRO =        -0.00000000
  eigenvalues    EBANDS =     -2703.74730085
  atomic energy  EATOM  =      7593.39991119
  ---------------------------------------------------
  free energy    TOTEN  =      -377.02340369 eV

  energy without entropy =     -377.02340369  energy(sigma->0) =     -377.02340369


--------------------------------------------------------------------------------------------------------




----------------------------------------- Iteration    1(  14)  ---------------------------------------


    POTLOK:  cpu time    4.74: real time    4.76
    SETDIJ:  cpu time    3.00: real time    3.02
     EDDAV:  cpu time   15.28: real time   16.48
       DOS:  cpu time    0.05: real time    0.05
    CHARGE:  cpu time    5.55: real time    5.56
    MIXING:  cpu time    0.13: real time    0.14
    --------------------------------------------
      LOOP:  cpu time   28.76: real time   30.00

 eigenvalue-minimisations  :   768
 total energy-change (2. order) : 0.1028466E-01  (-0.1322922E-02)
 number of electron     166.0000000 magnetization      -0.0000000
 augmentation part        5.2585218 magnetization       0.0000052

 Broyden mixing:
  rms(total) = 0.29505E-01    rms(broyden)= 0.29504E-01
  rms(prec ) = 0.45514E-01
  weight for this iteration     100.00

 eigenvalues of (default mixing * dielectric matrix)
  average eigenvalue GAMMA=   1.5907
  4.1943  2.6225  1.9333  1.3329  0.8543  0.8543  0.9528  0.9528  0.6191

 Free energy of the ion-electron system (eV)
  ---------------------------------------------------
  alpha Z        PSCENC =        12.91687988
  Ewald energy   TEWEN  =     23324.50557372
  -Hartree energ DENC   =    -29192.47736381
  -exchange      EXHF   =         0.00000000
  -V(xc)+E(xc)   XCENC  =       424.27782582
  PAW double counting   =     81014.81352547   -80841.66585804
  entropy T*S    EENTRO =        -0.00000000
  eigenvalues    EBANDS =     -2712.78361327
  atomic energy  EATOM  =      7593.39991119
  ---------------------------------------------------
  free energy    TOTEN  =      -377.01311903 eV

  energy without entropy =     -377.01311903  energy(sigma->0) =     -377.01311903


--------------------------------------------------------------------------------------------------------




----------------------------------------- Iteration    1(  15)  ---------------------------------------


    POTLOK:  cpu time    4.74: real time    4.75
    SETDIJ:  cpu time    3.03: real time    3.05
     EDDAV:  cpu time   15.20: real time   16.42
       DOS:  cpu time    0.05: real time    0.05
    CHARGE:  cpu time    5.34: real time    5.44
    MIXING:  cpu time    0.17: real time    0.17
    --------------------------------------------
      LOOP:  cpu time   28.54: real time   29.87

 eigenvalue-minimisations  :   768
 total energy-change (2. order) :-0.1199619E-02  (-0.4976151E-03)
 number of electron     166.0000000 magnetization      -0.0000000
 augmentation part        5.2565071 magnetization      -0.0000026

 Broyden mixing:
  rms(total) = 0.23373E-01    rms(broyden)= 0.23373E-01
  rms(prec ) = 0.32668E-01
  weight for this iteration     100.00

 eigenvalues of (default mixing * dielectric matrix)
  average eigenvalue GAMMA=   1.5802
  4.7290  2.4460  2.1605  1.4420  1.0452  1.0452  0.8514  0.8514  0.6525  0.5787

 Free energy of the ion-electron system (eV)
  ---------------------------------------------------
  alpha Z        PSCENC =        12.91687988
  Ewald energy   TEWEN  =     23324.50557372
  -Hartree energ DENC   =    -29184.11653757
  -exchange      EXHF   =         0.00000000
  -V(xc)+E(xc)   XCENC  =       424.40215745
  PAW double counting   =     81042.15161116   -80868.99944574
  entropy T*S    EENTRO =        -0.00000000
  eigenvalues    EBANDS =     -2721.27446873
  atomic energy  EATOM  =      7593.39991119
  ---------------------------------------------------
  free energy    TOTEN  =      -377.01431865 eV

  energy without entropy =     -377.01431865  energy(sigma->0) =     -377.01431865


--------------------------------------------------------------------------------------------------------




----------------------------------------- Iteration    1(  16)  ---------------------------------------


    POTLOK:  cpu time    4.75: real time    4.77
    SETDIJ:  cpu time    3.02: real time    3.04
     EDDAV:  cpu time   15.27: real time   16.50
       DOS:  cpu time    0.05: real time    0.05
    CHARGE:  cpu time    5.39: real time    5.40
    MIXING:  cpu time    0.14: real time    0.14
    --------------------------------------------
      LOOP:  cpu time   28.63: real time   29.90

 eigenvalue-minimisations  :   768
 total energy-change (2. order) :-0.6993220E-02  (-0.1589735E-03)
 number of electron     166.0000000 magnetization      -0.0000000
 augmentation part        5.2579532 magnetization       0.0000046

 Broyden mixing:
  rms(total) = 0.17699E-01    rms(broyden)= 0.17699E-01
  rms(prec ) = 0.23652E-01
  weight for this iteration     100.00

 eigenvalues of (default mixing * dielectric matrix)
  average eigenvalue GAMMA=   1.6914
  5.6153  2.5625  2.5625  1.5257  1.5257  0.8623  0.8623  0.9836  0.9836  0.6265
  0.4953

 Free energy of the ion-electron system (eV)
  ---------------------------------------------------
  alpha Z        PSCENC =        12.91687988
  Ewald energy   TEWEN  =     23324.50557372
  -Hartree energ DENC   =    -29177.15725564
  -exchange      EXHF   =         0.00000000
  -V(xc)+E(xc)   XCENC  =       424.39529392
  PAW double counting   =     81091.12513848   -80917.96311677
  entropy T*S    EENTRO =        -0.00000000
  eigenvalues    EBANDS =     -2728.24373664
  atomic energy  EATOM  =      7593.39991119
  ---------------------------------------------------
  free energy    TOTEN  =      -377.02131187 eV

  energy without entropy =     -377.02131187  energy(sigma->0) =     -377.02131187


--------------------------------------------------------------------------------------------------------




----------------------------------------- Iteration    1(  17)  ---------------------------------------


    POTLOK:  cpu time    4.77: real time    4.78
    SETDIJ:  cpu time    3.01: real time    3.03
     EDDAV:  cpu time   15.14: real time   16.38
       DOS:  cpu time    0.05: real time    0.05
    CHARGE:  cpu time    5.49: real time    5.55
    MIXING:  cpu time    0.13: real time    0.13
    --------------------------------------------
      LOOP:  cpu time   28.59: real time   29.92

 eigenvalue-minimisations  :   768
 total energy-change (2. order) :-0.5967142E-02  (-0.1174693E-03)
 number of electron     166.0000000 magnetization      -0.0000000
 augmentation part        5.2597552 magnetization       0.0000008

 Broyden mixing:
  rms(total) = 0.87748E-02    rms(broyden)= 0.87746E-02
  rms(prec ) = 0.13123E-01
  weight for this iteration     100.00

 eigenvalues of (default mixing * dielectric matrix)
  average eigenvalue GAMMA=   1.7605
  6.3292  2.7793  2.7793  1.6834  1.6834  0.8614  0.8614  1.0909  0.9733  0.9733
  0.6259  0.4854

 Free energy of the ion-electron system (eV)
  ---------------------------------------------------
  alpha Z        PSCENC =        12.91687988
  Ewald energy   TEWEN  =     23324.50557372
  -Hartree energ DENC   =    -29170.52202955
  -exchange      EXHF   =         0.00000000
  -V(xc)+E(xc)   XCENC  =       424.36350516
  PAW double counting   =     81141.09679542   -80967.92641457
  entropy T*S    EENTRO =        -0.00000000
  eigenvalues    EBANDS =     -2734.86150025
  atomic energy  EATOM  =      7593.39991119
  ---------------------------------------------------
  free energy    TOTEN  =      -377.02727901 eV

  energy without entropy =     -377.02727901  energy(sigma->0) =     -377.02727901


--------------------------------------------------------------------------------------------------------




----------------------------------------- Iteration    1(  18)  ---------------------------------------


    POTLOK:  cpu time    4.77: real time    4.78
    SETDIJ:  cpu time    2.99: real time    3.01
     EDDAV:  cpu time   15.26: real time   16.51
       DOS:  cpu time    0.05: real time    0.05
    CHARGE:  cpu time    5.43: real time    5.47
    MIXING:  cpu time    0.26: real time    0.26
    --------------------------------------------
      LOOP:  cpu time   28.76: real time   30.07

 eigenvalue-minimisations  :   768
 total energy-change (2. order) :-0.6317716E-02  (-0.8468193E-04)
 number of electron     166.0000000 magnetization      -0.0000000
 augmentation part        5.2606882 magnetization      -0.0000007

 Broyden mixing:
  rms(total) = 0.63969E-02    rms(broyden)= 0.63968E-02
  rms(prec ) = 0.84976E-02
  weight for this iteration     100.00

 eigenvalues of (default mixing * dielectric matrix)
[...]
 12.584   0.000  21.197   0.000  -0.008   0.000  -0.007   0.000  -0.009   0.000  -0.015   0.000  -0.012   0.000  -0.016   0.000
 21.197   0.000  35.703   0.000  -0.014   0.000  -0.011   0.000  -0.015   0.000  -0.025   0.000  -0.020   0.000  -0.027   0.000
 -0.008   0.000  -0.014   0.000  -3.550   0.000  -0.001   0.000  -0.000   0.000  -6.381   0.000  -0.002   0.000  -0.001   0.000
 -0.007   0.000  -0.011   0.000  -0.001   0.000  -3.550   0.000  -0.000   0.000  -0.002   0.000  -6.380   0.000  -0.000   0.000
 -0.009   0.000  -0.015   0.000  -0.000   0.000  -0.000   0.000  -3.550   0.000  -0.001   0.000  -0.000   0.000  -6.381   0.000
 -0.015   0.000  -0.025   0.000  -6.381   0.000  -0.002   0.000  -0.001   0.000 -11.446   0.000  -0.004   0.000  -0.002   0.000
 -0.012   0.000  -0.020   0.000  -0.002   0.000  -6.380   0.000  -0.000   0.000  -0.004   0.000 -11.446   0.000  -0.000   0.000
 -0.016   0.000  -0.027   0.000  -0.001   0.000  -0.000   0.000  -6.381   0.000  -0.002   0.000  -0.000   0.000 -11.448   0.000
 pseudopotential strength for first ion, spin component:           2
 12.584   0.000  21.197   0.000  -0.008   0.000  -0.007   0.000  -0.009   0.000  -0.015   0.000  -0.012   0.000  -0.016   0.000
 21.197   0.000  35.703   0.000  -0.014   0.000  -0.011   0.000  -0.015   0.000  -0.025   0.000  -0.020   0.000  -0.027   0.000
 -0.008   0.000  -0.014   0.000  -3.550   0.000  -0.001   0.000  -0.000   0.000  -6.381   0.000  -0.002   0.000  -0.001   0.000
 -0.007   0.000  -0.011   0.000  -0.001   0.000  -3.550   0.000  -0.000   0.000  -0.002   0.000  -6.380   0.000  -0.000   0.000
 -0.009   0.000  -0.015   0.000  -0.000   0.000  -0.000   0.000  -3.550   0.000  -0.001   0.000  -0.000   0.000  -6.381   0.000
 -0.015   0.000  -0.025   0.000  -6.381   0.000  -0.002   0.000  -0.001   0.000 -11.446   0.000  -0.004   0.000  -0.002   0.000
 -0.012   0.000  -0.020   0.000  -0.002   0.000  -6.380   0.000  -0.000   0.000  -0.004   0.000 -11.446   0.000  -0.000   0.000
 -0.016   0.000  -0.027   0.000  -0.001   0.000  -0.000   0.000  -6.381   0.000  -0.002   0.000  -0.000   0.000 -11.448   0.000
 total augmentation occupancy for first ion, spin component:           1
  1.588  -0.418  -0.406  -0.240  -0.779   0.169   0.105   0.302
 -0.418   0.572   0.239   0.157   0.392  -0.081  -0.055  -0.122
 -0.406   0.239   2.199   1.450   0.497  -0.383  -0.481  -0.194
 -0.240   0.157   1.450   2.266  -0.003  -0.481  -0.383  -0.059
 -0.779   0.392   0.497  -0.003   2.716  -0.195  -0.059  -0.443
  0.169  -0.081  -0.383  -0.481  -0.195   0.207   0.080   0.042
  0.105  -0.055  -0.481  -0.383  -0.059   0.080   0.197   0.044
  0.302  -0.122  -0.194  -0.059  -0.443   0.042   0.044   0.129
 total augmentation occupancy for first ion, spin component:           2
  0.000  -0.000   0.000   0.000  -0.000  -0.000  -0.000   0.000
 -0.000   0.000  -0.000  -0.000   0.000   0.000   0.000  -0.000
  0.000  -0.000  -0.000  -0.000   0.000   0.000   0.000  -0.000
  0.000  -0.000  -0.000  -0.000   0.000   0.000   0.000  -0.000
 -0.000   0.000   0.000   0.000   0.000  -0.000   0.000  -0.000
 -0.000   0.000   0.000   0.000  -0.000   0.000  -0.000   0.000
 -0.000   0.000   0.000   0.000   0.000  -0.000  -0.000   0.000
  0.000  -0.000  -0.000  -0.000  -0.000   0.000   0.000   0.000


------------------------ aborting loop because EDIFF is reached ----------------------------------------


    CHARGE:  cpu time    5.38: real time    5.39
    FORLOC:  cpu time    0.73: real time    0.73
    FORNL :  cpu time   20.79: real time   20.83
    STRESS:  cpu time   65.08: real time   65.21
    FORCOR:  cpu time    4.42: real time    4.44
    FORHAR:  cpu time    1.02: real time    1.03
    MIXING:  cpu time    0.28: real time    0.28
    OFIELD:  cpu time    0.00: real time    0.00

  FORCE on cell =-STRESS in cart. coord.  units (eV):
  Direction    XX          YY          ZZ          XY          YZ          ZX
  --------------------------------------------------------------------------------------
  Alpha Z    12.91688    12.91688    12.91688
  Ewald   11154.13248  5622.43252  6547.92613   378.25744 -1500.70495   897.78812
  Hartree 12522.05976  7831.13964  8805.77085    94.95368 -1403.14371   722.59929
  E(xc)    -688.93624  -691.44324  -692.08340     1.42136    -0.01118     0.64223
  Local  -26049.64147-15857.31850-17777.15883  -451.42130  2905.78781 -1621.25698
  n-local   -28.30104   -28.26762   -31.74439     3.84390    -0.90897    -0.70879
  augment    83.48274    83.99831    82.83687     1.81044     0.06764     0.74842
  Kinetic  2979.46832  3012.47497  3036.95213   -28.70890    -2.76974     0.75767
  Fock        0.00000     0.00000     0.00000     0.00000     0.00000     0.00000
  -------------------------------------------------------------------------------------
  Total     -14.81858   -14.06704   -14.58376     0.15662    -1.68310     0.56996
  in kB      -2.96775    -2.81724    -2.92072     0.03137    -0.33708     0.11415
  external pressure =       -2.90 kB  Pullay stress =        0.00 kB


 VOLUME and BASIS-vectors are now :
 -----------------------------------------------------------------------------
  energy-cutoff  :      700.00
  volume of cell :     8000.00
      direct lattice vectors                 reciprocal lattice vectors
    20.000000000  0.000000000  0.000000000     0.050000000  0.000000000  0.000000000
     0.000000000 20.000000000  0.000000000     0.000000000  0.050000000  0.000000000
     0.000000000  0.000000000 20.000000000     0.000000000  0.000000000  0.050000000

  length of vectors
    20.000000000 20.000000000 20.000000000     0.050000000  0.050000000  0.050000000


 FORCES acting on ions
    electron-ion (+dipol)            ewald-force                    non-local-force                 convergence-correction
 -----------------------------------------------------------------------------------------------
   -.176E+03 -.266E+03 -.221E+03   0.182E+03 0.271E+03 0.226E+03   -.568E+01 -.494E+01 -.387E+01   0.693E-05 -.428E-05 0.183E-04
   0.879E+02 -.901E+01 0.333E+03   -.886E+02 0.924E+01 -.335E+03   0.644E+00 -.233E+00 0.187E+01   -.772E-05 -.824E-05 -.440E-04
   0.680E+02 0.806E+02 0.319E+03   -.702E+02 -.828E+02 -.325E+03   0.215E+01 0.216E+01 0.639E+01   -.573E-05 -.235E-04 -.854E-05
   0.399E+01 -.318E+03 0.312E+02   -.432E+01 0.325E+03 -.312E+02   0.331E+00 -.682E+01 -.104E+00   -.808E-05 0.209E-05 0.461E-05
   0.364E+02 -.325E+03 0.106E+03   -.368E+02 0.327E+03 -.106E+03   0.361E+00 -.179E+01 0.747E+00   0.219E-05 0.235E-04 -.114E-04
   0.804E+02 -.208E+03 0.264E+03   -.810E+02 0.209E+03 -.265E+03   0.545E+00 -.112E+01 0.149E+01   -.387E-05 0.287E-04 -.449E-04
   0.747E+02 0.268E+03 -.218E+03   -.752E+02 -.270E+03 0.220E+03   0.469E+00 0.154E+01 -.144E+01   0.929E-05 -.349E-04 0.228E-04
   0.151E+03 0.256E+03 -.164E+03   -.155E+03 -.261E+03 0.168E+03   0.400E+01 0.482E+01 -.383E+01   -.293E-05 -.619E-05 0.847E-05
   -.227E+03 0.124E+03 -.137E+03   0.232E+03 -.125E+03 0.139E+03   -.528E+01 0.123E+01 -.281E+01   0.461E-04 0.461E-05 -.640E-05
   -.258E+03 0.144E+03 -.181E+03   0.259E+03 -.145E+03 0.183E+03   -.127E+01 0.133E+01 -.170E+01   0.267E-04 0.880E-06 -.198E-04
   -.338E+03 -.694E+02 -.555E+00   0.340E+03 0.700E+02 0.458E+00   -.201E+01 -.517E+00 0.772E-01   0.300E-04 -.998E-06 0.563E-06
   -.258E+03 -.192E+03 0.138E+03   0.260E+03 0.193E+03 -.138E+03   -.159E+01 -.121E+01 0.803E+00   0.319E-04 0.151E-04 -.189E-04
   -.182E+03 -.213E+03 0.188E+03   0.186E+03 0.218E+03 -.192E+03   -.341E+01 -.504E+01 0.412E+01   0.210E-04 -.249E-05 -.152E-04
   -.266E+03 0.648E+02 -.916E+02   0.271E+03 -.668E+02 0.944E+02   -.490E+01 0.198E+01 -.288E+01   0.131E-04 -.347E-04 0.177E-04
   -.315E+03 0.616E+02 -.112E+03   0.318E+03 -.615E+02 0.112E+03   -.240E+01 -.112E+00 -.390E+00   -.111E-04 -.262E-04 0.698E-05
   -.122E+03 0.233E+03 -.238E+03   0.123E+03 -.234E+03 0.240E+03   -.613E+00 0.141E+01 -.156E+01   0.368E-04 -.322E-04 0.182E-04
   0.272E+03 -.289E+02 -.104E+03   -.278E+03 0.299E+02 0.106E+03   0.550E+01 -.106E+01 -.212E+01   -.334E-04 0.239E-04 0.196E-04
   0.130E+03 -.219E+03 -.263E+03   -.132E+03 0.220E+03 0.265E+03   0.176E+01 -.153E+01 -.210E+01   -.316E-04 0.246E-04 0.244E-04
   -.701E+02 -.262E+03 -.254E+03   0.689E+02 0.266E+03 0.258E+03   0.151E+01 -.419E+01 -.488E+01   -.152E-04 0.185E-05 0.176E-05
   0.323E+03 -.345E+02 -.116E+03   -.326E+03 0.341E+02 0.117E+03   0.254E+01 0.450E+00 -.115E+00   0.101E-05 0.425E-05 0.173E-04
   0.236E+03 -.945E+02 -.157E+03   -.243E+03 0.946E+02 0.159E+03   0.660E+01 -.166E+00 -.214E+01   -.307E-04 0.472E-05 0.808E-05
   0.268E+03 -.124E+03 -.201E+03   -.270E+03 0.125E+03 0.203E+03   0.186E+01 -.102E+01 -.173E+01   -.989E-05 0.111E-04 0.417E-05
   0.148E+03 0.265E+03 0.193E+03   -.151E+03 -.270E+03 -.197E+03   0.324E+01 0.504E+01 0.423E+01   -.218E-04 -.201E-04 -.256E-04
   0.241E+03 0.224E+03 0.143E+03   -.243E+03 -.225E+03 -.144E+03   0.156E+01 0.129E+01 0.910E+00   -.323E-04 -.293E-04 -.219E-04
   0.337E+03 0.957E+02 0.325E+01   -.339E+03 -.965E+02 -.352E+01   0.213E+01 0.688E+00 0.250E+00   -.231E-04 -.187E-04 0.137E-04
   0.452E+02 0.806E+02 -.636E+02   -.488E+02 -.844E+02 0.665E+02   0.363E+01 0.382E+01 -.289E+01   -.251E-05 -.176E-04 0.118E-04
   -.418E+02 0.695E+02 -.756E+02   0.442E+02 -.732E+02 0.798E+02   -.243E+01 0.362E+01 -.418E+01   0.882E-05 -.176E-04 0.132E-04
   -.993E+02 0.279E+02 -.485E+02   0.105E+03 -.277E+02 0.498E+02   -.582E+01 -.254E+00 -.124E+01   0.343E-05 -.631E-05 -.500E-06
   -.407E+02 0.149E+03 0.160E+02   0.425E+02 -.157E+03 -.127E+02   -.179E+01 0.757E+01 -.335E+01   -.297E-05 0.101E-04 -.790E-07
   0.102E+03 -.224E+02 -.518E+02   -.108E+03 0.220E+02 0.530E+02   0.588E+01 0.423E+00 -.121E+01   -.345E-05 0.427E-05 0.439E-05
   0.801E+02 0.681E+02 -.316E+02   -.859E+02 -.683E+02 0.303E+02   0.587E+01 0.145E+00 0.133E+01   -.479E-05 -.801E-06 -.657E-07
   0.267E+02 -.663E+02 0.814E+02   -.282E+02 0.701E+02 -.859E+02   0.154E+01 -.372E+01 0.448E+01   -.487E-05 0.186E-04 -.260E-04
   0.596E+01 -.110E+03 0.904E+01   -.592E+01 0.116E+03 -.798E+01   -.346E-01 -.588E+01 -.107E+01   -.412E-06 0.195E-04 -.643E-05
   -.140E+02 -.102E+03 -.336E+02   0.156E+02 0.104E+03 0.389E+02   -.154E+01 -.210E+01 -.534E+01   -.286E-05 -.220E-05 0.336E-05
   -.101E+03 0.259E+02 0.116E+03   0.108E+03 -.237E+02 -.121E+03   -.652E+01 -.228E+01 0.486E+01   -.583E-05 0.981E-06 0.773E-05
   -.916E+02 0.386E+02 -.535E+02   0.949E+02 -.418E+02 0.573E+02   -.330E+01 0.324E+01 -.376E+01   0.265E-05 -.368E-05 -.115E-05
   -.662E+02 -.714E+02 0.548E+02   0.686E+02 0.756E+02 -.582E+02   -.246E+01 -.426E+01 0.345E+01   0.132E-04 0.709E-05 -.729E-05
   0.175E+02 0.711E+02 0.886E+02   -.175E+02 -.771E+02 -.893E+02   0.476E-01 0.597E+01 0.730E+00   -.468E-06 -.106E-04 -.781E-06
   0.421E+01 0.905E+02 0.774E+02   -.612E+00 -.935E+02 -.812E+02   -.360E+01 0.301E+01 0.376E+01   -.298E-05 -.297E-05 -.477E-05
   0.603E+02 0.771E+02 0.571E+02   -.626E+02 -.814E+02 -.607E+02   0.229E+01 0.427E+01 0.357E+01   -.102E-04 -.937E-05 -.596E-05
   -.105E+03 -.196E+02 -.447E+01   0.111E+03 0.206E+02 0.493E+01   -.593E+01 -.948E+00 -.465E+00   0.199E-04 0.493E-05 -.205E-05
   -.904E+02 -.642E+02 -.366E+02   0.955E+02 0.644E+02 0.355E+02   -.617E+01 -.236E+00 0.139E+01   -.159E-04 -.552E-05 0.501E-05
   0.286E+02 0.212E+02 0.104E+03   -.301E+02 -.236E+02 -.109E+03   0.153E+01 0.241E+01 0.526E+01   -.440E-05 -.246E-05 -.229E-04
   -.453E+02 -.794E+02 -.710E+02   0.490E+02 0.831E+02 0.740E+02   -.359E+01 -.382E+01 -.313E+01   -.392E-05 0.982E-05 0.966E-05
   0.948E+02 -.330E+02 -.542E+02   -.982E+02 0.361E+02 0.580E+02   0.347E+01 -.310E+01 -.371E+01   -.147E-05 -.309E-05 0.230E-05
   0.105E+03 0.253E+02 -.235E+01   -.111E+03 -.264E+02 0.265E+01   0.592E+01 0.109E+01 -.301E+00   -.143E-04 -.100E-04 0.243E-05
   -.230E+02 -.758E+02 0.742E+02   0.196E+02 0.790E+02 -.780E+02   0.344E+01 -.318E+01 0.380E+01   0.625E-05 -.119E-05 -.367E-05
   0.436E+02 -.660E+02 -.808E+02   -.461E+02 0.695E+02 0.851E+02   0.253E+01 -.343E+01 -.432E+01   -.619E-05 0.100E-04 0.100E-04
   0.311E+02 -.138E+03 0.224E+03   -.263E+02 0.126E+03 -.209E+03   -.488E+01 0.122E+02 -.147E+02   0.520E-05 -.335E-04 0.387E-04
   0.233E+03 0.165E+03 0.627E+02   -.213E+03 -.161E+03 -.645E+02   -.199E+02 -.303E+01 0.180E+01   0.194E-07 0.248E-04 0.896E-05
   -.412E+02 0.236E+03 -.158E+03   0.328E+02 -.224E+03 0.145E+03   0.847E+01 -.113E+02 0.132E+02   0.437E-04 0.370E-04 -.321E-04
   0.477E+02 -.188E+03 -.191E+03   -.418E+02 0.174E+03 0.174E+03   -.530E+01 0.139E+02 0.168E+02   0.781E-05 -.289E-05 0.138E-04
   -.254E+03 -.939E+02 0.695E+02   0.234E+03 0.913E+02 -.715E+02   0.201E+02 0.266E+01 0.202E+01   -.166E-04 -.576E-04 0.167E-04
   -.123E+03 0.405E+03 0.422E+03   0.833E+02 -.388E+03 -.425E+03   0.395E+02 -.168E+02 0.295E+01   -.952E-05 0.202E-04 0.217E-04
   -.739E+02 0.138E+03 0.236E+03   0.727E+02 -.135E+03 -.232E+03   0.110E+01 -.257E+01 -.343E+01   0.485E-04 -.526E-04 0.331E-05
 -----------------------------------------------------------------------------------------------
   -.401E+02 0.105E+02 -.559E+01   -.711E-13 0.426E-12 -.313E-12   0.401E+02 -.105E+02 0.559E+01   0.332E-04 -.169E-03 0.292E-04
 
 
 POSITION                                       TOTAL-FORCE (eV/Angst)
 -----------------------------------------------------------------------------------
     10.05904     11.71816     12.53361         0.005091      0.418218      0.453989
      8.75875     11.31222      6.55140        -0.006595      0.002383     -0.006174
      9.11624     10.48468      7.61029         0.007483     -0.028428      0.010618
      9.47459     12.30603      8.99730        -0.007390     -0.013861     -0.015409
      9.11904     13.19266      7.98704         0.008326      0.018937      0.042879
      8.75715     12.69444      6.73519         0.002567     -0.017920     -0.002898
     10.46158      6.59100     13.49490         0.002511     -0.009662      0.019596
      9.94203      7.43809     12.52376        -0.010874      0.018902     -0.036929
     12.04547      8.38666     12.11872        -0.022651     -0.015059     -0.001060
     12.61928      7.55238     13.08448         0.013849      0.020784     -0.007132
     14.79299     10.57118     10.69264        -0.010641      0.014363     -0.019376
     14.01643     11.32257      9.80881         0.029938      0.003434      0.005741
     12.65158     11.07272      9.73048        -0.027485      0.027842     -0.025978
     12.79043      9.38554     11.34657         0.012311     -0.010137      0.000038
     14.16878      9.59490     11.46294        -0.004384     -0.011334      0.011991
     11.82695      6.64488     13.78060        -0.026617     -0.000383     -0.008632
      7.24231      9.77330     11.28348         0.047891     -0.065313     -0.082993
      8.15819     12.44233     13.81164        -0.032855     -0.031374     -0.033684
      9.52399     12.52132     13.53212         0.358191     -0.602473     -0.721339
      5.86694      9.53439     11.36602         0.020933      0.075258      0.069846
      7.96508     10.76003     12.08522        -0.049750      0.007806      0.011653
      7.38092     11.55121     13.07965         0.113794      0.067778      0.038728
      7.45796      8.11597      9.64469         0.096766      0.039621      0.018530
      6.09730      7.83470      9.68863        -0.051123      0.023822      0.037196
      5.28440      8.55710     10.56432        -0.007153     -0.026986     -0.023502
      9.79795      5.90212     14.01497        -0.002119     -0.005960      0.001548
     12.26685      5.99367     14.53463         0.002652     -0.006763      0.004271
     13.68484      7.61538     13.29576         0.000018     -0.003539      0.001926
     10.84507      7.24677      9.22597         0.006502     -0.039059     -0.006041
      6.31582     11.46138     13.28407        -0.004389      0.008901      0.006382
      8.88327      7.42377     12.27295        -0.004169     -0.020915      0.000264
      8.47853     13.36665      5.92453        -0.001447      0.007124      0.000207
      9.12855     14.26265      8.19005         0.002910      0.003088     -0.002873
      9.76183     12.67176      9.98145         0.010419      0.032862     -0.023620
     11.38256      8.36174      8.29610         0.014713      0.003807     -0.024816
     14.75349      8.99278     12.15530         0.006897     -0.001059     -0.001057
     14.45552     12.09620      9.18096         0.003236      0.001626     -0.007626
      9.11405      9.40258      7.49376        -0.005085     -0.001082     -0.012834
      8.12287      7.57771      8.97051        -0.001610     -0.002054     -0.001236
      5.68876      7.06123      9.04041        -0.005449     -0.007764     -0.002650
     15.86530     10.74076     10.77851         0.003603      0.001175     -0.000410
     11.11794     11.75383     12.28812        -1.154529     -0.057623      0.256104
      8.48240     10.86572      5.59722        -0.004453     -0.000950      0.003777
     10.17895     13.19691     14.08003         0.115405     -0.053874     -0.087786
      5.25320     10.11370     12.05309        -0.031313     -0.011008     -0.004040
      4.21445      8.36275     10.62101        -0.003368      0.003167      0.002516
     12.01813     11.63958      9.05085         0.005309     -0.000944     -0.014315
      7.70887     13.05934     14.58823         0.073462      0.021161      0.001927
      9.48490     10.95884      8.82805        -0.009473      0.007337     -0.106594
      8.03610      9.06122     10.42169        -0.014433     -0.012366     -0.028386
     10.70414      8.32170     11.83465         0.093988     -0.156498      0.114532
      9.30896     10.85100     11.80824         0.558664     -0.065115     -0.177494
     12.02768     10.13012     10.47953         0.119774      0.071004      0.032588
     10.61480      8.11252      8.84309        -0.057619      0.113157      0.141154
     10.01771      9.61740     10.38685        -0.180227      0.265945      0.198885
 -----------------------------------------------------------------------------------
    total drift:                                0.006586     -0.003359      0.003243


--------------------------------------------------------------------------------------------------------



  FREE ENERGIE OF THE ION-ELECTRON SYSTEM (eV)
  ---------------------------------------------------
  free  energy   TOTEN  =      -377.04437752 eV

  energy  without entropy=     -377.04437752  energy(sigma->0) =     -377.04437752
 


--------------------------------------------------------------------------------------------------------


    POTLOK:  cpu time    8.56: real time    8.65


--------------------------------------------------------------------------------------------------------


 writing wavefunctions
     LOOP+:  cpu time 1061.88: real time 1099.86
    4ORBIT:  cpu time    0.00: real time    0.00

 total amount of memory used by VASP on root node   877132. kBytes
========================================================================

   base      :      30000. kBytes
   nonlr-proj:      19361. kBytes
   fftplans  :     269516. kBytes
   grid      :     534988. kBytes
   one-center:       1710. kBytes
   wavefun   :      21557. kBytes
 
  
  
 General timing and accounting informations for this job:
 ========================================================
  
                  Total CPU time used (sec):     1321.577
                            User time (sec):     1167.100
                          System time (sec):      154.478
                         Elapsed time (sec):     1363.304
  
                   Maximum memory used (kb):     1490200.
                   Average memory used (kb):           0.
  
                          Minor page faults:      7039571
                          Major page faults:            0
                 Voluntary context switches:       282665
