<?xml version="1.0" encoding="ISO-8859-1"?>
<modeling>
 <generator>
  <i name="program" type="string">vasp </i>
  <i name="version" type="string">5.3.5  </i>
  <i name="subversion" type="string">31Mar14 (build Apr 08 2014 12:00:03) complex                          parallel </i>
  <i name="platform" type="string">NSC-NSCPATCH-BUILD02 </i>
  <i name="date" type="string">2017 03 15 </i>
  <i name="time" type="string">18:56:23 </i>
 </generator>
 <incar>
  <i type="string" name="SYSTEM"> c2_oh2_ruthenium_mol</i>
  <i type="int" name="ISTART">     0</i>
  <i type="string" name="PREC">accurate</i>
  <i type="int" name="IALGO">    38</i>
  <i type="logical" name="ADDGRID"> T  </i>
  <i type="int" name="ISPIN">     2</i>
  <i name="BMIX">      2.00000000</i>
  <i type="int" name="ICHARG">     2</i>
  <i name="EDIFF">      0.00001000</i>
  <i name="EDIFFG">     -0.01000000</i>
  <i name="ENCUT">    700.00000000</i>
  <i name="POTIM">      0.50000000</i>
  <i name="NUPDOWN">      0.00000000</i>
  <i name="NELECT">    166.00000000</i>
  <i type="string" name="LREAL"> Auto</i>
  <i name="TIME">      0.05000000</i>
  <i type="int" name="ISMEAR">     0</i>
  <i name="SIGMA">      0.01000000</i>
  <i type="int" name="ICORELEVEL">     2</i>
  <i type="int" name="CLNT">     1</i>
  <i type="int" name="CLN">     1</i>
  <i type="int" name="INCAR     ">     0</i>
  <i name="CLZ">      0.50000000</i>
 </incar>
 <kpoints>
  <generation param="Monkhorst-Pack">
   <v type="int" name="divisions">       1        1        1 </v>
   <v name="usershift">      0.00000000       0.00000000       0.00000000 </v>
   <v name="genvec1">      1.00000000       0.00000000       0.00000000 </v>
   <v name="genvec2">      0.00000000       1.00000000       0.00000000 </v>
   <v name="genvec3">      0.00000000       0.00000000       1.00000000 </v>
   <v name="shift">      0.00000000       0.00000000       0.00000000 </v>
  </generation>
  <varray name="kpointlist" >
   <v>       0.00000000       0.00000000       0.00000000 </v>
  </varray>
  <varray name="weights" >
   <v>       1.00000000 </v>
  </varray>
 </kpoints>
 <parameters>
  <separator name="general" >
   <i type="string" name="SYSTEM">c2_oh2_ruthenium_mol</i>
   <i type="logical" name="LCOMPAT"> F  </i>
  </separator>
  <separator name="electronic" >
   <i type="string" name="PREC">accura</i>
   <i name="ENMAX">    700.00000000</i>
   <i name="ENAUG">    946.76800000</i>
   <i name="EDIFF">      0.00001000</i>
   <i type="int" name="IALGO">    38</i>
   <i type="int" name="IWAVPR">    10</i>
   <i type="int" name="NBANDS">   128</i>
   <i name="NELECT">    166.00000000</i>
   <i type="int" name="TURBO">     0</i>
   <i type="int" name="IRESTART">     0</i>
   <i type="int" name="NREBOOT">     0</i>
   <i type="int" name="NMIN">     0</i>
   <i name="EREF">      0.00000000</i>
   <separator name="electronic smearing" >
    <i type="int" name="ISMEAR">     0</i>
    <i name="SIGMA">      0.01000000</i>
    <i name="KSPACING">      0.50000000</i>
    <i type="logical" name="KGAMMA"> T  </i>
   </separator>
   <separator name="electronic projectors" >
    <i type="logical" name="LREAL"> T  </i>
    <v name="ROPT">     -0.00025000     -0.00025000     -0.00025000     -0.00025000     -0.00025000     -0.00025000</v>
    <i type="int" name="LMAXPAW">  -100</i>
    <i type="int" name="LMAXMIX">     2</i>
    <i type="logical" name="NLSPLINE"> F  </i>
   </separator>
   <separator name="electronic startup" >
    <i type="int" name="ISTART">     0</i>
    <i type="int" name="ICHARG">     2</i>
    <i type="int" name="INIWAV">     1</i>
   </separator>
   <separator name="electronic spin" >
    <i type="int" name="ISPIN">     2</i>
    <i type="logical" name="LNONCOLLINEAR"> F  </i>
    <v name="MAGMOM">      0.00000000      0.00000000      0.00000000      0.00000000      0.00000000      0.00000000      0.00000000      0.00000000      0.00000000      0.00000000      0.00000000      0.00000000      0.00000000      0.00000000      0.00000000      0.00000000      0.00000000      0.00000000      0.00000000      0.00000000
      0.00000000      0.00000000      0.00000000      0.00000000      0.00000000      0.00000000      0.00000000      0.00000000      0.00000000      0.00000000      0.00000000      0.00000000      0.00000000      0.00000000      0.00000000      0.00000000      0.00000000      0.00000000      0.00000000      0.00000000
      0.00000000      0.00000000      0.00000000      0.00000000      0.00000000      0.00000000      0.00000000      0.00000000      0.00000000      0.00000000      0.00000000      0.00000000      0.00000000      0.00000000      0.00000000</v>
    <i name="NUPDOWN">      0.00000000</i>
    <i type="logical" name="LSORBIT"> F  </i>
    <v name="SAXIS">      0.00000000      0.00000000      1.00000000</v>
    <i type="logical" name="LSPIRAL"> F  </i>
    <v name="QSPIRAL">      0.00000000      0.00000000      0.00000000</v>
    <i type="logical" name="LZEROZ"> F  </i>
   </separator>
   <separator name="electronic exchange-correlation" >
    <i type="logical" name="LASPH"> F  </i>
    <i type="logical" name="LMETAGGA"> F  </i>
   </separator>
   <separator name="electronic convergence" >
    <i type="int" name="NELM">    60</i>
    <i type="int" name="NELMDL">    -5</i>
    <i type="int" name="NELMIN">     2</i>
    <i name="ENINI">    700.00000000</i>
    <separator name="electronic convergence detail" >
     <i type="logical" name="LDIAG"> T  </i>
     <i type="logical" name="LSUBROT"> F  </i>
     <i name="WEIMIN">      0.00000000</i>
     <i name="EBREAK">      0.00000002</i>
     <i name="DEPER">      0.30000000</i>
     <i type="int" name="NRMM">     4</i>
     <i name="TIME">      0.05000000</i>
    </separator>
   </separator>
   <separator name="electronic mixer" >
    <i name="AMIX">      0.40000000</i>
    <i name="BMIX">      2.00000000</i>
    <i name="AMIN">      0.10000000</i>
    <i name="AMIX_MAG">      1.60000000</i>
    <i name="BMIX_MAG">      2.00000000</i>
    <separator name="electronic mixer details" >
     <i type="int" name="IMIX">     4</i>
     <i type="int" name="MAXMIX">   -45</i>
     <i name="WC">    100.00000000</i>
     <i type="int" name="INIMIX">     1</i>
     <i type="int" name="MIXPRE">     1</i>
     <i type="int" name="MREMOVE">     5</i>
    </separator>
   </separator>
   <separator name="electronic dipolcorrection" >
    <i type="logical" name="LDIPOL"> F  </i>
    <i type="logical" name="LMONO"> F  </i>
    <i type="int" name="IDIPOL">     0</i>
    <i name="EPSILON">      1.00000000</i>
    <v name="DIPOL">   -100.00000000   -100.00000000   -100.00000000</v>
    <i name="EFIELD">      0.00000000</i>
   </separator>
  </separator>
  <separator name="grids" >
   <i type="int" name="NGX">   180</i>
   <i type="int" name="NGY">   180</i>
   <i type="int" name="NGZ">   180</i>
   <i type="int" name="NGXF">   360</i>
   <i type="int" name="NGYF">   360</i>
   <i type="int" name="NGZF">   360</i>
   <i type="logical" name="ADDGRID"> T  </i>
  </separator>
  <separator name="ionic" >
   <i type="int" name="NSW">     0</i>
   <i type="int" name="IBRION">    -1</i>
   <i type="int" name="ISIF">     2</i>
   <i name="PSTRESS">      0.00000000</i>
   <i name="EDIFFG">     -0.01000000</i>
   <i type="int" name="NFREE">     0</i>
   <i name="POTIM">      0.50000000</i>
   <i name="SMASS">     -3.00000000</i>
   <i name="SCALEE">      1.00000000</i>
  </separator>
  <separator name="ionic md" >
   <i name="TEBEG">      0.00010000</i>
   <i name="TEEND">      0.00010000</i>
   <i type="int" name="NBLOCK">     1</i>
   <i type="int" name="KBLOCK">     1</i>
   <i type="int" name="NPACO">   256</i>
   <i name="APACO">     16.00000000</i>
  </separator>
  <separator name="symmetry" >
   <i type="int" name="ISYM">     2</i>
   <i name="SYMPREC">      0.00001000</i>
  </separator>
  <separator name="dos" >
   <i type="logical" name="LORBIT"> F  </i>
   <v name="RWIGS">     -1.00000000     -1.00000000     -1.00000000     -1.00000000     -1.00000000     -1.00000000</v>
   <i type="int" name="NEDOS">   301</i>
   <i name="EMIN">     10.00000000</i>
   <i name="EMAX">    -10.00000000</i>
   <i name="EFERMI">      0.00000000</i>
  </separator>
  <separator name="writing" >
   <i type="int" name="NWRITE">     2</i>
   <i type="logical" name="LWAVE"> T  </i>
   <i type="logical" name="LCHARG"> T  </i>
   <i type="logical" name="LPARD"> F  </i>
   <i type="logical" name="LVTOT"> F  </i>
   <i type="logical" name="LVHAR"> F  </i>
   <i type="logical" name="LELF"> F  </i>
   <i type="logical" name="LOPTICS"> F  </i>
   <v name="STM">      0.00000000      0.00000000      0.00000000      0.00000000      0.00000000      0.00000000      0.00000000</v>
  </separator>
  <separator name="performance" >
   <i type="int" name="NPAR">    64</i>
   <i type="int" name="NSIM">     4</i>
   <i type="int" name="NBLK">    -1</i>
   <i type="logical" name="LPLANE"> T  </i>
   <i type="logical" name="LSCALAPACK"> T  </i>
   <i type="logical" name="LSCAAWARE"> F  </i>
   <i type="logical" name="LSCALU"> F  </i>
   <i type="logical" name="LASYNC"> F  </i>
   <i type="logical" name="LORBITALREAL"> F  </i>
  </separator>
  <separator name="miscellaneous" >
   <i type="int" name="IDIOT">     3</i>
   <i type="logical" name="LMUSIC"> F  </i>
   <v name="POMASS">     12.01100000     12.01100000      1.00000000     14.00100000     16.00000000    101.07000000</v>
   <v name="DARWINR">      0.00000000      0.00000000      0.00000000      0.00000000      0.00000000      0.00000000</v>
   <v name="DARWINV">      1.00000000      1.00000000      1.00000000      1.00000000      1.00000000      1.00000000</v>
   <i type="logical" name="LCORR"> T  </i>
  </separator>
  <i type="logical" name="GGA_COMPAT"> T  </i>
  <i type="logical" name="LBERRY"> F  </i>
  <i type="int" name="ICORELEVEL">     2</i>
  <i type="int" name="CLNT">     1</i>
  <i type="int" name="CLN">     1</i>
  <i type="int" name="CLL">     0</i>
  <i name="CLZ">      0.50000000</i>
  <i type="logical" name="LDAU"> F  </i>
  <i type="int" name="I_CONSTRAINED_M">     0</i>
  <separator name="electronic exchange-correlation" >
   <i type="string" name="GGA">--</i>
   <i type="int" name="VOSKOWN">     0</i>
   <i type="logical" name="LHFCALC"> F  </i>
   <i type="string" name="PRECFOCK"></i>
   <i type="logical" name="LSYMGRAD"> F  </i>
   <i type="logical" name="LHFONE"> F  </i>
   <i type="logical" name="LRHFCALC"> F  </i>
   <i type="logical" name="LTHOMAS"> F  </i>
   <i type="logical" name="LMODELHF"> F  </i>
   <i name="ENCUT4O">     -1.00000000</i>
   <i type="int" name="EXXOEP">     0</i>
   <i type="int" name="FOURORBIT">     0</i>
   <i name="AEXX">      0.00000000</i>
   <i name="HFALPHA">      0.00000000</i>
   <i name="MCALPHA">      0.00000000</i>
   <i name="ALDAX">      1.00000000</i>
   <i name="AGGAX">      1.00000000</i>
   <i name="ALDAC">      1.00000000</i>
   <i name="AGGAC">      1.00000000</i>
   <i type="int" name="NKREDX">     1</i>
   <i type="int" name="NKREDY">     1</i>
   <i type="int" name="NKREDZ">     1</i>
   <i type="logical" name="SHIFTRED"> F  </i>
   <i type="logical" name="ODDONLY"> F  </i>
   <i type="logical" name="EVENONLY"> F  </i>
   <i type="int" name="LMAXFOCK">     0</i>
   <i type="int" name="NMAXFOCKAE">     0</i>
   <i type="logical" name="LFOCKAEDFT"> F  </i>
   <i name="HFSCREEN">      0.00000000</i>
   <i name="HFSCREENC">      0.00000000</i>
   <i type="int" name="NBANDSGWLOW">     0</i>
  </separator>
  <separator name="vdW DFT" >
   <i type="logical" name="LUSE_VDW"> F  </i>
   <i name="Zab_VDW">     -0.84910000</i>
   <i name="PARAM1">      0.12340000</i>
   <i name="PARAM2">      1.00000000</i>
   <i name="PARAM3">      0.00000000</i>
  </separator>
  <separator name="model GW" >
   <i type="int" name="MODEL_GW">     0</i>
   <i name="MODEL_EPS0">     87.27272727</i>
   <i name="MODEL_ALPHA">      1.00000000</i>
  </separator>
  <separator name="linear response parameters" >
   <i type="logical" name="LEPSILON"> F  </i>
   <i type="logical" name="LRPA"> F  </i>
   <i type="logical" name="LNABLA"> F  </i>
   <i type="logical" name="LVEL"> F  </i>
   <i type="int" name="KINTER">     0</i>
   <i name="CSHIFT">      0.10000000</i>
   <i name="OMEGAMAX">     -1.00000000</i>
   <i name="DEG_THRESHOLD">      0.00200000</i>
  </separator>
  <separator name="orbital magnetization" >
   <i type="logical" name="NUCIND"> F  </i>
   <v name="MAGPOS">      0.00000000      0.00000000      0.00000000</v>
   <i type="logical" name="LNICSALL"> T  </i>
   <i type="logical" name="ORBITALMAG"> F  </i>
   <i type="logical" name="LMAGBLOCH"> F  </i>
   <i type="logical" name="LCHIMAG"> F  </i>
   <i type="logical" name="LGAUGE"> T  </i>
   <i type="int" name="MAGATOM">     0</i>
   <v name="MAGDIPOL">      0.00000000      0.00000000      0.00000000</v>
   <v name="AVECCONST">      0.00000000      0.00000000      0.00000000</v>
  </separator>
  <separator name="response functions" >
   <i type="logical" name="LADDER"> F  </i>
   <i type="logical" name="LFXC"> F  </i>
   <i type="logical" name="LHARTREE"> T  </i>
   <i type="int" name="IBSE">     0</i>
   <i type="logical" name="LTCTE"> F  </i>
   <i type="logical" name="LTETE"> F  </i>
   <i type="logical" name="LTRIPLET"> F  </i>
   <i type="logical" name="LFXCEPS"> F  </i>
   <i type="logical" name="LFXHEG"> F  </i>
   <i type="logical" name="L2ORDER"> F  </i>
   <i type="logical" name="LUSEW"> F  </i>
   <i name="ENCUTGW">     -2.00000000</i>
   <i name="ENCUTGWSOFT">     -2.00000000</i>
   <i name="ENCUTLF">     -1.00000000</i>
   <i type="int" name="LMAXMP2">    -1</i>
   <i name="SCISSOR">      0.00000000</i>
   <i type="int" name="NOMEGA">     0</i>
   <i type="int" name="NOMEGAR">     0</i>
   <i type="int" name="NBANDSGW">    -1</i>
   <i type="int" name="NBANDSO">    -1</i>
   <i type="int" name="NBANDSV">    -1</i>
   <i type="int" name="NELM">     1</i>
   <i type="int" name="DIM">     3</i>
   <i type="int" name="ANTIRES">     0</i>
   <i name="OMEGAMAX">    -30.00000000</i>
   <i name="OMEGAMIN">    -30.00000000</i>
   <i name="OMEGATL">   -200.00000000</i>
   <i type="int" name="OMEGAGRID">     0</i>
   <i name="CSHIFT">     -0.10000000</i>
   <i type="logical" name="SELFENERGY"> F  </i>
   <i type="logical" name="LSPECTRAL"> F  </i>
   <i type="logical" name="ODDONLYGW"> F  </i>
   <i type="logical" name="EVENONLYGW"> F  </i>
   <i type="int" name="NKREDLFX">     1</i>
   <i type="int" name="NKREDLFY">     1</i>
   <i type="int" name="NKREDLFZ">     1</i>
   <i type="int" name="MAXMEM">  1800</i>
   <i type="int" name="TELESCOPE">     0</i>
   <i type="int" name="TAUPAR">     1</i>
  </separator>
  <separator name="External order field" >
   <i name="OFIELD_KAPPA">      0.00000000</i>
   <v name="OFIELD_K">      0.00000000      0.00000000      0.00000000</v>
   <i name="OFIELD_Q6_NEAR">      0.00000000</i>
   <i name="OFIELD_Q6_FAR">      0.00000000</i>
   <i name="OFIELD_A">      0.00000000</i>
  </separator>
 </parameters>
 <atominfo>
  <atoms>      55 </atoms>
  <types>       6 </types>
  <array name="atoms" >
   <dimension dim="1">ion</dimension>
   <field type="string">element</field>
   <field type="int">atomtype</field>
   <set>
    <rc><c>C </c><c>   1</c></rc>
    <rc><c>C </c><c>   2</c></rc>
    <rc><c>C </c><c>   2</c></rc>
    <rc><c>C </c><c>   2</c></rc>
    <rc><c>C </c><c>   2</c></rc>
    <rc><c>C </c><c>   2</c></rc>
    <rc><c>C </c><c>   2</c></rc>
    <rc><c>C </c><c>   2</c></rc>
    <rc><c>C </c><c>   2</c></rc>
    <rc><c>C </c><c>   2</c></rc>
    <rc><c>C </c><c>   2</c></rc>
    <rc><c>C </c><c>   2</c></rc>
    <rc><c>C </c><c>   2</c></rc>
    <rc><c>C </c><c>   2</c></rc>
    <rc><c>C </c><c>   2</c></rc>
    <rc><c>C </c><c>   2</c></rc>
    <rc><c>C </c><c>   2</c></rc>
    <rc><c>C </c><c>   2</c></rc>
    <rc><c>C </c><c>   2</c></rc>
    <rc><c>C </c><c>   2</c></rc>
    <rc><c>C </c><c>   2</c></rc>
    <rc><c>C </c><c>   2</c></rc>
    <rc><c>C </c><c>   2</c></rc>
    <rc><c>C </c><c>   2</c></rc>
    <rc><c>C </c><c>   2</c></rc>
    <rc><c>H </c><c>   3</c></rc>
    <rc><c>H </c><c>   3</c></rc>
    <rc><c>H </c><c>   3</c></rc>
    <rc><c>H </c><c>   3</c></rc>
    <rc><c>H </c><c>   3</c></rc>
    <rc><c>H </c><c>   3</c></rc>
    <rc><c>H </c><c>   3</c></rc>
    <rc><c>H </c><c>   3</c></rc>
    <rc><c>H </c><c>   3</c></rc>
    <rc><c>H </c><c>   3</c></rc>
    <rc><c>H </c><c>   3</c></rc>
    <rc><c>H </c><c>   3</c></rc>
    <rc><c>H </c><c>   3</c></rc>
    <rc><c>H </c><c>   3</c></rc>
    <rc><c>H </c><c>   3</c></rc>
    <rc><c>H </c><c>   3</c></rc>
    <rc><c>H </c><c>   3</c></rc>
    <rc><c>H </c><c>   3</c></rc>
    <rc><c>H </c><c>   3</c></rc>
    <rc><c>H </c><c>   3</c></rc>
    <rc><c>H </c><c>   3</c></rc>
    <rc><c>H </c><c>   3</c></rc>
    <rc><c>H </c><c>   3</c></rc>
    <rc><c>N </c><c>   4</c></rc>
    <rc><c>N </c><c>   4</c></rc>
    <rc><c>N </c><c>   4</c></rc>
    <rc><c>N </c><c>   4</c></rc>
    <rc><c>N </c><c>   4</c></rc>
    <rc><c>O </c><c>   5</c></rc>
    <rc><c>Ru</c><c>   6</c></rc>
   </set>
  </array>
  <array name="atomtypes" >
   <dimension dim="1">type</dimension>
   <field type="int">atomspertype</field>
   <field type="string">element</field>
   <field>mass</field>
   <field>valence</field>
   <field type="string">pseudopotential</field>
   <set>
    <rc><c>   1</c><c>C </c><c>     12.01100000</c><c>      4.50000000</c><c>  PAW_PBE C_h 06Feb2004                 </c></rc>
    <rc><c>  24</c><c>C </c><c>     12.01100000</c><c>      4.00000000</c><c>  PAW_PBE C_h 06Feb2004                 </c></rc>
    <rc><c>  23</c><c>H </c><c>      1.00000000</c><c>      1.00000000</c><c>  PAW_PBE H 15Jun2001                   </c></rc>
    <rc><c>   5</c><c>N </c><c>     14.00100000</c><c>      5.00000000</c><c>  PAW_PBE N_h 06Feb2004                 </c></rc>
    <rc><c>   1</c><c>O </c><c>     16.00000000</c><c>      6.00000000</c><c>  PAW_PBE O_h 06Feb2004                 </c></rc>
    <rc><c>   1</c><c>Ru</c><c>    101.07000000</c><c>     14.00000000</c><c>  PAW_PBE Ru_pv 28Jan2005               </c></rc>
   </set>
  </array>
 </atominfo>
 <structure name="initialpos" >
  <crystal>
   <varray name="basis" >
    <v>      20.00000000       0.00000000       0.00000000 </v>
    <v>       0.00000000      20.00000000       0.00000000 </v>
    <v>       0.00000000       0.00000000      20.00000000 </v>
   </varray>
   <i name="volume">   8000.00000000 </i>
   <varray name="rec_basis" >
    <v>       0.05000000       0.00000000       0.00000000 </v>
    <v>       0.00000000       0.05000000       0.00000000 </v>
    <v>       0.00000000       0.00000000       0.05000000 </v>
   </varray>
  </crystal>
  <varray name="positions" >
   <v>       0.50295190       0.58590820       0.62668073 </v>
   <v>       0.43793752       0.56561110       0.32757008 </v>
   <v>       0.45581208       0.52423376       0.38051465 </v>
   <v>       0.47372925       0.61530131       0.44986522 </v>
   <v>       0.45595175       0.65963312       0.39935201 </v>
   <v>       0.43785737       0.63472201       0.33675972 </v>
   <v>       0.52307882       0.32955005       0.67474498 </v>
   <v>       0.49710163       0.37190466       0.62618823 </v>
   <v>       0.60227374       0.41933300       0.60593616 </v>
   <v>       0.63096398       0.37761922       0.65422416 </v>
   <v>       0.73964927       0.52855915       0.53463181 </v>
   <v>       0.70082162       0.56612858       0.49044049 </v>
   <v>       0.63257913       0.55363620       0.48652424 </v>
   <v>       0.63952130       0.46927713       0.56732841 </v>
   <v>       0.70843899       0.47974495       0.57314689 </v>
   <v>       0.59134754       0.33224398       0.68903016 </v>
   <v>       0.36211554       0.48866484       0.56417415 </v>
   <v>       0.40790931       0.62211625       0.69058213 </v>
   <v>       0.47619960       0.62606623       0.67660612 </v>
   <v>       0.29334713       0.47671938       0.56830116 </v>
   <v>       0.39825425       0.53800137       0.60426081 </v>
   <v>       0.36904589       0.57756069       0.65398228 </v>
   <v>       0.37289802       0.40579857       0.48223443 </v>
   <v>       0.30486503       0.39173492       0.48443166 </v>
   <v>       0.26422003       0.42785518       0.52821594 </v>
   <v>       0.48989745       0.29510618       0.70074864 </v>
   <v>       0.61334240       0.29968355       0.72673159 </v>
   <v>       0.68424189       0.38076917       0.66478776 </v>
   <v>       0.54225374       0.36233861       0.46129841 </v>
   <v>       0.31579090       0.57306911       0.66420366 </v>
   <v>       0.44416348       0.37118871       0.61364770 </v>
   <v>       0.42392665       0.66833230       0.29622671 </v>
   <v>       0.45642762       0.71313270       0.40950260 </v>
   <v>       0.48809132       0.63358802       0.49907234 </v>
   <v>       0.56912778       0.41808713       0.41480476 </v>
   <v>       0.73767440       0.44963919       0.60776512 </v>
   <v>       0.72277620       0.60481012       0.45904817 </v>
   <v>       0.45570253       0.47012894       0.37468790 </v>
   <v>       0.40614333       0.37888556       0.44852541 </v>
   <v>       0.28443799       0.35306162       0.45202062 </v>
   <v>       0.79326502       0.53703787       0.53892527 </v>
   <v>       0.55589708       0.58769132       0.61440612 </v>
   <v>       0.42412006       0.54328620       0.27986105 </v>
   <v>       0.50894741       0.65984570       0.70400156 </v>
   <v>       0.26265982       0.50568523       0.60265428 </v>
   <v>       0.21072272       0.41813760       0.53105039 </v>
   <v>       0.60090654       0.58197914       0.45254259 </v>
   <v>       0.38544357       0.65296704       0.72941133 </v>
   <v>       0.47424490       0.54794204       0.44140236 </v>
   <v>       0.40180479       0.45306079       0.52108436 </v>
   <v>       0.53520702       0.41608490       0.59173240 </v>
   <v>       0.46544808       0.54254992       0.59041194 </v>
   <v>       0.60138410       0.50650621       0.52397638 </v>
   <v>       0.53073984       0.40562607       0.44215451 </v>
   <v>       0.50088568       0.48087016       0.51934246 </v>
  </varray>
  <varray name="selective"  type="logical" >
   <v type="logical" >  T  T  T </v>
   <v type="logical" >  T  T  T </v>
   <v type="logical" >  T  T  T </v>
   <v type="logical" >  T  T  T </v>
   <v type="logical" >  T  T  T </v>
   <v type="logical" >  T  T  T </v>
   <v type="logical" >  T  T  T </v>
   <v type="logical" >  T  T  T </v>
   <v type="logical" >  T  T  T </v>
   <v type="logical" >  T  T  T </v>
   <v type="logical" >  T  T  T </v>
   <v type="logical" >  T  T  T </v>
   <v type="logical" >  T  T  T </v>
   <v type="logical" >  T  T  T </v>
   <v type="logical" >  T  T  T </v>
   <v type="logical" >  T  T  T </v>
   <v type="logical" >  T  T  T </v>
   <v type="logical" >  T  T  T </v>
   <v type="logical" >  T  T  T </v>
   <v type="logical" >  T  T  T </v>
   <v type="logical" >  T  T  T </v>
   <v type="logical" >  T  T  T </v>
   <v type="logical" >  T  T  T </v>
   <v type="logical" >  T  T  T </v>
   <v type="logical" >  T  T  T </v>
   <v type="logical" >  T  T  T </v>
   <v type="logical" >  T  T  T </v>
   <v type="logical" >  T  T  T </v>
   <v type="logical" >  T  T  T </v>
   <v type="logical" >  T  T  T </v>
   <v type="logical" >  T  T  T </v>
   <v type="logical" >  T  T  T </v>
   <v type="logical" >  T  T  T </v>
   <v type="logical" >  T  T  T </v>
   <v type="logical" >  T  T  T </v>
   <v type="logical" >  T  T  T </v>
   <v type="logical" >  T  T  T </v>
   <v type="logical" >  T  T  T </v>
   <v type="logical" >  T  T  T </v>
   <v type="logical" >  T  T  T </v>
   <v type="logical" >  T  T  T </v>
   <v type="logical" >  T  T  T </v>
   <v type="logical" >  T  T  T </v>
   <v type="logical" >  T  T  T </v>
   <v type="logical" >  T  T  T </v>
   <v type="logical" >  T  T  T </v>
   <v type="logical" >  T  T  T </v>
   <v type="logical" >  T  T  T </v>
   <v type="logical" >  T  T  T </v>
   <v type="logical" >  T  T  T </v>
   <v type="logical" >  T  T  T </v>
   <v type="logical" >  T  T  T </v>
   <v type="logical" >  T  T  T </v>
   <v type="logical" >  T  T  T </v>
   <v type="logical" >  T  T  T </v>
  </varray>
  <nose>
   <v>      -3.00000000       0.00000000       0.00010000       0.00010000 </v>
  </nose>
 </structure>
 <calculation>
  <scstep>
   <time name="dav">   14.93   15.81</time>
   <time name="total">   22.82   23.73</time>
   <energy>
    <i name="alphaZ">     12.91687988 </i>
    <i name="ewald">  23324.50557372 </i>
    <i name="hartreedc"> -28926.52131641 </i>
    <i name="XCdc">    400.96409885 </i>
    <i name="pawpsdc">   5890.45591622 </i>
    <i name="pawaedc">  -5710.10246236 </i>
    <i name="eentropy">     -0.00000508 </i>
    <i name="bandstr">  -1675.92693551 </i>
    <i name="atom">   7593.39991119 </i>
    <i name="e_fr_energy">    909.69166050 </i>
    <i name="e_wo_entrp">    909.69166559 </i>
    <i name="e_0_energy">    909.69166305 </i>
   </energy>
  </scstep>
  <scstep>
   <time name="dav">   19.45   20.42</time>
   <time name="total">   19.46   20.44</time>
   <energy>
    <i name="e_fr_energy">    -68.45455345 </i>
    <i name="e_wo_entrp">    -68.45455345 </i>
    <i name="e_0_energy">    -68.45455345 </i>
   </energy>
  </scstep>
  <scstep>
   <time name="dav">   15.26   16.08</time>
   <time name="total">   15.27   16.10</time>
   <energy>
    <i name="e_fr_energy">   -391.08962593 </i>
    <i name="e_wo_entrp">   -391.08962593 </i>
    <i name="e_0_energy">   -391.08962593 </i>
   </energy>
  </scstep>
  <scstep>
   <time name="dav">   12.93   13.56</time>
   <time name="total">   12.94   13.57</time>
   <energy>
    <i name="e_fr_energy">   -411.44453937 </i>
    <i name="e_wo_entrp">   -411.44453937 </i>
    <i name="e_0_energy">   -411.44453937 </i>
   </energy>
  </scstep>
  <scstep>
   <time name="dav">   17.23   18.15</time>
   <time name="total">   22.86   23.80</time>
   <energy>
    <i name="e_fr_energy">   -411.80177528 </i>
    <i name="e_wo_entrp">   -411.80177528 </i>
    <i name="e_0_energy">   -411.80177528 </i>
   </energy>
  </scstep>
  <scstep>
   <time name="dav">   12.94   13.65</time>
   <time name="total">   26.30   27.04</time>
   <energy>
    <i name="e_fr_energy">   -393.38006483 </i>
    <i name="e_wo_entrp">   -393.38006483 </i>
    <i name="e_0_energy">   -393.38006483 </i>
   </energy>
  </scstep>
  <scstep>
   <time name="dav">   12.91   13.58</time>
   <time name="total">   26.24   26.99</time>
   <energy>
    <i name="e_fr_energy">   -382.69098701 </i>
    <i name="e_wo_entrp">   -382.69098701 </i>
    <i name="e_0_energy">   -382.69098701 </i>
   </energy>
  </scstep>
  <scstep>
   <time name="dav">   15.26   16.50</time>
   <time name="total">   28.53   29.81</time>
   <energy>
    <i name="e_fr_energy">   -378.46864926 </i>
    <i name="e_wo_entrp">   -378.46864926 </i>
    <i name="e_0_energy">   -378.46864926 </i>
   </energy>
  </scstep>
  <scstep>
   <time name="dav">   15.17   16.40</time>
   <time name="total">   28.49   29.89</time>
   <energy>
    <i name="e_fr_energy">   -377.29379516 </i>
    <i name="e_wo_entrp">   -377.29379516 </i>
    <i name="e_0_energy">   -377.29379516 </i>
   </energy>
  </scstep>
  <scstep>
   <time name="dav">   15.21   16.47</time>
   <time name="total">   28.49   29.79</time>
   <energy>
    <i name="e_fr_energy">   -377.25683816 </i>
    <i name="e_wo_entrp">   -377.25683816 </i>
    <i name="e_0_energy">   -377.25683816 </i>
   </energy>
  </scstep>
  <scstep>
   <time name="dav">   15.26   16.48</time>
   <time name="total">   28.44   29.70</time>
   <energy>
    <i name="e_fr_energy">   -377.11605029 </i>
    <i name="e_wo_entrp">   -377.11605029 </i>
    <i name="e_0_energy">   -377.11605029 </i>
   </energy>
  </scstep>
  <scstep>
   <time name="dav">   15.28   16.52</time>
   <time name="total">   28.57   29.84</time>
   <energy>
    <i name="e_fr_energy">   -377.04343191 </i>
    <i name="e_wo_entrp">   -377.04343191 </i>
    <i name="e_0_energy">   -377.04343191 </i>
   </energy>
  </scstep>
  <scstep>
   <time name="dav">   15.16   16.38</time>
   <time name="total">   28.45   29.72</time>
   <energy>
    <i name="e_fr_energy">   -377.02340369 </i>
    <i name="e_wo_entrp">   -377.02340369 </i>
    <i name="e_0_energy">   -377.02340369 </i>
   </energy>
  </scstep>
  <scstep>
   <time name="dav">   15.28   16.48</time>
   <time name="total">   28.76   30.00</time>
   <energy>
    <i name="e_fr_energy">   -377.01311903 </i>
    <i name="e_wo_entrp">   -377.01311903 </i>
    <i name="e_0_energy">   -377.01311903 </i>
   </energy>
  </scstep>
  <scstep>
   <time name="dav">   15.20   16.42</time>
   <time name="total">   28.54   29.87</time>
   <energy>
    <i name="e_fr_energy">   -377.01431865 </i>
    <i name="e_wo_entrp">   -377.01431865 </i>
    <i name="e_0_energy">   -377.01431865 </i>
   </energy>
  </scstep>
  <scstep>
   <time name="dav">   15.27   16.50</time>
   <time name="total">   28.63   29.90</time>
   <energy>
    <i name="e_fr_energy">   -377.02131187 </i>
    <i name="e_wo_entrp">   -377.02131187 </i>
    <i name="e_0_energy">   -377.02131187 </i>
   </energy>
  </scstep>
  <scstep>
   <time name="dav">   15.14   16.38</time>
   <time name="total">   28.59   29.92</time>
   <energy>
    <i name="e_fr_energy">   -377.02727901 </i>
    <i name="e_wo_entrp">   -377.02727901 </i>
    <i name="e_0_energy">   -377.02727901 </i>
   </energy>
  </scstep>
  <scstep>
   <time name="dav">   15.26   16.51</time>
   <time name="total">   28.76   30.07</time>
   <energy>
    <i name="e_fr_energy">   -377.03359672 </i>
    <i name="e_wo_entrp">   -377.03359672 </i>
    <i name="e_0_energy">   -377.03359672 </i>
   </energy>
  </scstep>
  <scstep>
   <time name="dav">   15.17   16.41</time>
   <time name="total">   28.31   29.89</time>
   <energy>
    <i name="e_fr_energy">   -377.03773468 </i>
    <i name="e_wo_entrp">   -377.03773468 </i>
    <i name="e_0_energy">   -377.03773468 </i>
   </energy>
  </scstep>
  <scstep>
   <time name="dav">   15.27   16.51</time>
   <time name="total">   28.77   30.06</time>
   <energy>
    <i name="e_fr_energy">   -377.03974125 </i>
    <i name="e_wo_entrp">   -377.03974125 </i>
    <i name="e_0_energy">   -377.03974125 </i>
   </energy>
  </scstep>
  <scstep>
   <time name="dav">   15.21   16.47</time>
   <time name="total">   28.74   30.06</time>
   <energy>
    <i name="e_fr_energy">   -377.04191308 </i>
    <i name="e_wo_entrp">   -377.04191308 </i>
    <i name="e_0_energy">   -377.04191308 </i>
   </energy>
  </scstep>
  <scstep>
   <time name="dav">   15.28   16.52</time>
   <time name="total">   28.64   29.92</time>
   <energy>
    <i name="e_fr_energy">   -377.04283558 </i>
    <i name="e_wo_entrp">   -377.04283558 </i>
    <i name="e_0_energy">   -377.04283558 </i>
   </energy>
  </scstep>
  <scstep>
   <time name="dav">   13.20   14.35</time>
   <time name="total">   26.73   28.01</time>
   <energy>
    <i name="e_fr_energy">   -377.04341598 </i>
    <i name="e_wo_entrp">   -377.04341598 </i>
    <i name="e_0_energy">   -377.04341598 </i>
   </energy>
  </scstep>
  <scstep>
   <time name="dav">   13.32   14.43</time>
   <time name="total">   26.96   28.11</time>
   <energy>
    <i name="e_fr_energy">   -377.04389970 </i>
    <i name="e_wo_entrp">   -377.04389970 </i>
    <i name="e_0_energy">   -377.04389970 </i>
   </energy>
  </scstep>
  <scstep>
   <time name="dav">   13.15   14.33</time>
   <time name="total">   26.60   27.81</time>
   <energy>
    <i name="e_fr_energy">   -377.04401773 </i>
    <i name="e_wo_entrp">   -377.04401773 </i>
    <i name="e_0_energy">   -377.04401773 </i>
   </energy>
  </scstep>
  <scstep>
   <time name="dav">   13.20   14.32</time>
   <time name="total">   27.18   28.34</time>
   <energy>
    <i name="e_fr_energy">   -377.04416727 </i>
    <i name="e_wo_entrp">   -377.04416727 </i>
    <i name="e_0_energy">   -377.04416727 </i>
   </energy>
  </scstep>
  <scstep>
   <time name="dav">   13.20   14.32</time>
   <time name="total">   26.68   27.84</time>
   <energy>
    <i name="e_fr_energy">   -377.04426568 </i>
    <i name="e_wo_entrp">   -377.04426568 </i>
    <i name="e_0_energy">   -377.04426568 </i>
   </energy>
  </scstep>
  <scstep>
   <time name="dav">   13.35   14.44</time>
   <time name="total">   26.94   28.08</time>
   <energy>
    <i name="e_fr_energy">   -377.04433131 </i>
    <i name="e_wo_entrp">   -377.04433131 </i>
    <i name="e_0_energy">   -377.04433131 </i>
   </energy>
  </scstep>
  <scstep>
   <time name="dav">   13.19   14.32</time>
   <time name="total">   26.89   28.04</time>
   <energy>
    <i name="e_fr_energy">   -377.04435500 </i>
    <i name="e_wo_entrp">   -377.04435500 </i>
    <i name="e_0_energy">   -377.04435500 </i>
   </energy>
  </scstep>
  <scstep>
   <time name="dav">   13.32   14.52</time>
   <time name="total">   26.84   28.06</time>
   <energy>
    <i name="e_fr_energy">   -377.04436957 </i>
    <i name="e_wo_entrp">   -377.04436957 </i>
    <i name="e_0_energy">   -377.04436957 </i>
   </energy>
  </scstep>
  <scstep>
   <time name="dav">   13.19   14.28</time>
   <time name="total">   21.08   22.21</time>
   <energy>
    <i name="alphaZ">     12.91687988 </i>
    <i name="ewald">  23324.50557372 </i>
    <i name="hartreedc"> -29158.96759969 </i>
    <i name="XCdc">    424.24852428 </i>
    <i name="pawpsdc">  81156.02017500 </i>
    <i name="pawaedc"> -80982.84137791 </i>
    <i name="eentropy">     -0.00000000 </i>
    <i name="bandstr">  -2746.32646400 </i>
    <i name="atom">   7593.39991119 </i>
    <i name="e_fr_energy">   -377.04437752 </i>
    <i name="e_wo_entrp">   -377.04437752 </i>
    <i name="e_0_energy">   -377.04437752 </i>
   </energy>
  </scstep>
  <structure>
   <crystal>
    <varray name="basis" >
     <v>      20.00000000       0.00000000       0.00000000 </v>
     <v>       0.00000000      20.00000000       0.00000000 </v>
     <v>       0.00000000       0.00000000      20.00000000 </v>
    </varray>
    <i name="volume">   8000.00000000 </i>
    <varray name="rec_basis" >
     <v>       0.05000000       0.00000000       0.00000000 </v>
     <v>       0.00000000       0.05000000       0.00000000 </v>
     <v>       0.00000000       0.00000000       0.05000000 </v>
    </varray>
   </crystal>
   <varray name="positions" >
    <v>       0.50295190       0.58590820       0.62668073 </v>
    <v>       0.43793752       0.56561110       0.32757008 </v>
    <v>       0.45581208       0.52423376       0.38051465 </v>
    <v>       0.47372925       0.61530131       0.44986522 </v>
    <v>       0.45595175       0.65963312       0.39935201 </v>
    <v>       0.43785737       0.63472201       0.33675972 </v>
    <v>       0.52307882       0.32955005       0.67474498 </v>
    <v>       0.49710163       0.37190466       0.62618823 </v>
    <v>       0.60227374       0.41933300       0.60593616 </v>
    <v>       0.63096398       0.37761922       0.65422416 </v>
    <v>       0.73964927       0.52855915       0.53463181 </v>
    <v>       0.70082162       0.56612858       0.49044049 </v>
    <v>       0.63257913       0.55363620       0.48652424 </v>
    <v>       0.63952130       0.46927713       0.56732841 </v>
    <v>       0.70843899       0.47974495       0.57314689 </v>
    <v>       0.59134754       0.33224398       0.68903016 </v>
    <v>       0.36211554       0.48866484       0.56417415 </v>
    <v>       0.40790931       0.62211625       0.69058213 </v>
    <v>       0.47619960       0.62606623       0.67660612 </v>
    <v>       0.29334713       0.47671938       0.56830116 </v>
    <v>       0.39825425       0.53800137       0.60426081 </v>
    <v>       0.36904589       0.57756069       0.65398228 </v>
    <v>       0.37289802       0.40579857       0.48223443 </v>
    <v>       0.30486503       0.39173492       0.48443166 </v>
    <v>       0.26422003       0.42785518       0.52821594 </v>
    <v>       0.48989745       0.29510618       0.70074864 </v>
    <v>       0.61334240       0.29968355       0.72673159 </v>
    <v>       0.68424189       0.38076917       0.66478776 </v>
    <v>       0.54225374       0.36233861       0.46129841 </v>
    <v>       0.31579090       0.57306911       0.66420366 </v>
    <v>       0.44416348       0.37118871       0.61364770 </v>
    <v>       0.42392665       0.66833230       0.29622671 </v>
    <v>       0.45642762       0.71313270       0.40950260 </v>
    <v>       0.48809132       0.63358802       0.49907234 </v>
    <v>       0.56912778       0.41808713       0.41480476 </v>
    <v>       0.73767440       0.44963919       0.60776512 </v>
    <v>       0.72277620       0.60481012       0.45904817 </v>
    <v>       0.45570253       0.47012894       0.37468790 </v>
    <v>       0.40614333       0.37888556       0.44852541 </v>
    <v>       0.28443799       0.35306162       0.45202062 </v>
    <v>       0.79326502       0.53703787       0.53892527 </v>
    <v>       0.55589708       0.58769132       0.61440612 </v>
    <v>       0.42412006       0.54328620       0.27986105 </v>
    <v>       0.50894741       0.65984570       0.70400156 </v>
    <v>       0.26265982       0.50568523       0.60265428 </v>
    <v>       0.21072272       0.41813760       0.53105039 </v>
    <v>       0.60090654       0.58197914       0.45254259 </v>
    <v>       0.38544357       0.65296704       0.72941133 </v>
    <v>       0.47424490       0.54794204       0.44140236 </v>
    <v>       0.40180479       0.45306079       0.52108436 </v>
    <v>       0.53520702       0.41608490       0.59173240 </v>
    <v>       0.46544808       0.54254992       0.59041194 </v>
    <v>       0.60138410       0.50650621       0.52397638 </v>
    <v>       0.53073984       0.40562607       0.44215451 </v>
    <v>       0.50088568       0.48087016       0.51934246 </v>
   </varray>
  </structure>
  <varray name="forces" >
   <v>       0.00509052       0.41821843       0.45398884 </v>
   <v>      -0.00659457       0.00238300      -0.00617432 </v>
   <v>       0.00748280      -0.02842750       0.01061779 </v>
   <v>      -0.00738956      -0.01386139      -0.01540909 </v>
   <v>       0.00832570       0.01893745       0.04287920 </v>
   <v>       0.00256709      -0.01791967      -0.00289753 </v>
   <v>       0.00251076      -0.00966202       0.01959602 </v>
   <v>      -0.01087393       0.01890159      -0.03692901 </v>
   <v>      -0.02265102      -0.01505896      -0.00106022 </v>
   <v>       0.01384946       0.02078379      -0.00713246 </v>
   <v>      -0.01064099       0.01436294      -0.01937552 </v>
   <v>       0.02993838       0.00343437       0.00574054 </v>
   <v>      -0.02748473       0.02784218      -0.02597832 </v>
   <v>       0.01231150      -0.01013661       0.00003811 </v>
   <v>      -0.00438404      -0.01133402       0.01199101 </v>
   <v>      -0.02661716      -0.00038307      -0.00863233 </v>
   <v>       0.04789050      -0.06531270      -0.08299306 </v>
   <v>      -0.03285534      -0.03137360      -0.03368445 </v>
   <v>       0.35819054      -0.60247299      -0.72133935 </v>
   <v>       0.02093310       0.07525791       0.06984576 </v>
   <v>      -0.04974951       0.00780567       0.01165348 </v>
   <v>       0.11379434       0.06777772       0.03872802 </v>
   <v>       0.09676597       0.03962146       0.01852974 </v>
   <v>      -0.05112345       0.02382213       0.03719636 </v>
   <v>      -0.00715258      -0.02698627      -0.02350169 </v>
   <v>      -0.00211877      -0.00596024       0.00154811 </v>
   <v>       0.00265186      -0.00676350       0.00427110 </v>
   <v>       0.00001773      -0.00353856       0.00192552 </v>
   <v>       0.00650180      -0.03905896      -0.00604097 </v>
   <v>      -0.00438853       0.00890056       0.00638199 </v>
   <v>      -0.00416943      -0.02091504       0.00026407 </v>
   <v>      -0.00144698       0.00712428       0.00020672 </v>
   <v>       0.00290950       0.00308763      -0.00287309 </v>
   <v>       0.01041875       0.03286176      -0.02361985 </v>
   <v>       0.01471301       0.00380726      -0.02481569 </v>
   <v>       0.00689683      -0.00105875      -0.00105740 </v>
   <v>       0.00323586       0.00162573      -0.00762578 </v>
   <v>      -0.00508524      -0.00108234      -0.01283410 </v>
   <v>      -0.00160953      -0.00205441      -0.00123600 </v>
   <v>      -0.00544878      -0.00776438      -0.00265036 </v>
   <v>       0.00360270       0.00117500      -0.00040958 </v>
   <v>      -1.15452887      -0.05762342       0.25610361 </v>
   <v>      -0.00445260      -0.00095024       0.00377697 </v>
   <v>       0.11540470      -0.05387359      -0.08778606 </v>
   <v>      -0.03131272      -0.01100752      -0.00404038 </v>
   <v>      -0.00336839       0.00316741       0.00251604 </v>
   <v>       0.00530857      -0.00094446      -0.01431508 </v>
   <v>       0.07346192       0.02116063       0.00192742 </v>
   <v>      -0.00947317       0.00733716      -0.10659365 </v>
   <v>      -0.01443318      -0.01236577      -0.02838609 </v>
   <v>       0.09398789      -0.15649773       0.11453205 </v>
   <v>       0.55866353      -0.06511469      -0.17749399 </v>
   <v>       0.11977365       0.07100372       0.03258824 </v>
   <v>      -0.05761864       0.11315713       0.14115385 </v>
   <v>      -0.18022725       0.26594546       0.19888488 </v>
  </varray>
  <varray name="stress" >
   <v>      -2.96774817       0.03136669       0.11414730 </v>
   <v>       0.03136669      -2.81723565      -0.33707838 </v>
   <v>       0.11414729      -0.33707838      -2.92072041 </v>
  </varray>
  <energy>
   <i name="e_fr_energy">   -377.04437752 </i>
   <i name="e_wo_entrp">   -377.04437752 </i>
   <i name="e_0_energy">     -0.00000000 </i>
  </energy>
  <time name="totalsc"> 1061.88 1099.86</time>
  <eigenvalues>
   <array>
    <dimension dim="1">band</dimension>
    <dimension dim="2">kpoint</dimension>
    <dimension dim="3">spin</dimension>
    <field>eigene</field>
    <field>occ</field>
    <set>
     <set comment="spin 1">
      <set comment="kpoint 1">
       <r>  -49.2398    1.0000 </r>
       <r>  -49.0765    1.0000 </r>
       <r>  -48.8242    1.0000 </r>
       <r>  -29.2062    1.0000 </r>
       <r>  -27.9551    1.0000 </r>
       <r>  -26.9321    1.0000 </r>
       <r>  -26.6129    1.0000 </r>
       <r>  -26.2319    1.0000 </r>
       <r>  -26.2193    1.0000 </r>
       <r>  -23.4096    1.0000 </r>
       <r>  -23.2387    1.0000 </r>
       <r>  -22.5337    1.0000 </r>
       <r>  -22.4615    1.0000 </r>
       <r>  -22.3988    1.0000 </r>
       <r>  -22.2961    1.0000 </r>
       <r>  -22.0840    1.0000 </r>
       <r>  -21.4907    1.0000 </r>
       <r>  -21.1665    1.0000 </r>
       <r>  -20.8802    1.0000 </r>
       <r>  -19.5512    1.0000 </r>
       <r>  -19.3038    1.0000 </r>
       <r>  -18.8036    1.0000 </r>
       <r>  -18.5377    1.0000 </r>
       <r>  -18.1587    1.0000 </r>
       <r>  -17.9174    1.0000 </r>
       <r>  -17.8495    1.0000 </r>
       <r>  -17.6926    1.0000 </r>
       <r>  -17.6701    1.0000 </r>
       <r>  -17.3871    1.0000 </r>
       <r>  -16.8765    1.0000 </r>
       <r>  -16.6814    1.0000 </r>
       <r>  -15.9394    1.0000 </r>
       <r>  -15.7034    1.0000 </r>
       <r>  -15.3482    1.0000 </r>
       <r>  -15.2706    1.0000 </r>
       <r>  -14.8466    1.0000 </r>
       <r>  -14.7916    1.0000 </r>
       <r>  -14.7608    1.0000 </r>
       <r>  -14.3361    1.0000 </r>
       <r>  -14.1849    1.0000 </r>
       <r>  -14.1111    1.0000 </r>
       <r>  -14.0915    1.0000 </r>
       <r>  -14.0285    1.0000 </r>
       <r>  -13.9208    1.0000 </r>
       <r>  -13.8766    1.0000 </r>
       <r>  -13.4539    1.0000 </r>
       <r>  -13.3701    1.0000 </r>
       <r>  -13.2873    1.0000 </r>
       <r>  -13.2669    1.0000 </r>
       <r>  -13.2038    1.0000 </r>
       <r>  -13.0552    1.0000 </r>
       <r>  -13.0072    1.0000 </r>
       <r>  -12.7978    1.0000 </r>
       <r>  -12.7634    1.0000 </r>
       <r>  -12.5088    1.0000 </r>
       <r>  -12.4403    1.0000 </r>
       <r>  -12.3698    1.0000 </r>
       <r>  -12.2013    1.0000 </r>
       <r>  -12.0866    1.0000 </r>
       <r>  -12.0491    1.0000 </r>
       <r>  -11.7372    1.0000 </r>
       <r>  -11.3645    1.0000 </r>
       <r>  -11.3134    1.0000 </r>
       <r>  -11.1873    1.0000 </r>
       <r>  -11.1720    1.0000 </r>
       <r>  -10.8173    1.0000 </r>
       <r>  -10.8021    1.0000 </r>
       <r>  -10.7011    1.0000 </r>
       <r>  -10.6475    1.0000 </r>
       <r>  -10.5852    1.0000 </r>
       <r>  -10.0058    1.0000 </r>
       <r>   -9.9663    1.0000 </r>
       <r>   -9.9271    1.0000 </r>
       <r>   -9.8553    1.0000 </r>
       <r>   -9.7945    1.0000 </r>
       <r>   -9.6975    1.0000 </r>
       <r>   -9.4486    1.0000 </r>
       <r>   -8.9436    1.0000 </r>
       <r>   -8.7832    1.0000 </r>
       <r>   -8.4828    1.0000 </r>
       <r>   -7.5516    1.0000 </r>
       <r>   -7.3968    1.0000 </r>
       <r>   -7.2238    1.0000 </r>
       <r>   -5.5070    0.0000 </r>
       <r>   -5.3166    0.0000 </r>
       <r>   -5.1089    0.0000 </r>
       <r>   -4.2892    0.0000 </r>
       <r>   -4.2322    0.0000 </r>
       <r>   -4.1639    0.0000 </r>
       <r>   -4.0637    0.0000 </r>
       <r>   -4.0315    0.0000 </r>
       <r>   -3.5533    0.0000 </r>
       <r>   -3.2718    0.0000 </r>
       <r>   -3.1677    0.0000 </r>
       <r>   -2.8565    0.0000 </r>
       <r>   -2.8231    0.0000 </r>
       <r>   -2.1045    0.0000 </r>
       <r>   -1.7768    0.0000 </r>
       <r>   -1.5679    0.0000 </r>
       <r>   -1.2823    0.0000 </r>
       <r>   -1.2566    0.0000 </r>
       <r>   -1.1811    0.0000 </r>
       <r>   -1.1441    0.0000 </r>
       <r>   -1.0522    0.0000 </r>
       <r>   -0.8922    0.0000 </r>
       <r>   -0.7708    0.0000 </r>
       <r>   -0.7354    0.0000 </r>
       <r>   -0.6259    0.0000 </r>
       <r>   -0.5754    0.0000 </r>
       <r>   -0.5394    0.0000 </r>
       <r>   -0.4236    0.0000 </r>
       <r>   -0.3507    0.0000 </r>
       <r>   -0.2265    0.0000 </r>
       <r>   -0.1443    0.0000 </r>
       <r>   -0.0550    0.0000 </r>
       <r>   -0.0503    0.0000 </r>
       <r>    0.0820    0.0000 </r>
       <r>    0.1514    0.0000 </r>
       <r>    0.2421    0.0000 </r>
       <r>    0.2898    0.0000 </r>
       <r>    0.3446    0.0000 </r>
       <r>    0.3782    0.0000 </r>
       <r>    0.4189    0.0000 </r>
       <r>    0.4715    0.0000 </r>
       <r>    0.5515    0.0000 </r>
       <r>    0.5825    0.0000 </r>
       <r>    0.6055    0.0000 </r>
       <r>    0.6445    0.0000 </r>
      </set>
     </set>
     <set comment="spin 2">
      <set comment="kpoint 1">
       <r>  -49.2398    1.0000 </r>
       <r>  -49.0765    1.0000 </r>
       <r>  -48.8242    1.0000 </r>
       <r>  -29.2062    1.0000 </r>
       <r>  -27.9551    1.0000 </r>
       <r>  -26.9321    1.0000 </r>
       <r>  -26.6129    1.0000 </r>
       <r>  -26.2319    1.0000 </r>
       <r>  -26.2193    1.0000 </r>
       <r>  -23.4096    1.0000 </r>
       <r>  -23.2387    1.0000 </r>
       <r>  -22.5337    1.0000 </r>
       <r>  -22.4615    1.0000 </r>
       <r>  -22.3988    1.0000 </r>
       <r>  -22.2961    1.0000 </r>
       <r>  -22.0840    1.0000 </r>
       <r>  -21.4907    1.0000 </r>
       <r>  -21.1665    1.0000 </r>
       <r>  -20.8802    1.0000 </r>
       <r>  -19.5512    1.0000 </r>
       <r>  -19.3038    1.0000 </r>
       <r>  -18.8036    1.0000 </r>
       <r>  -18.5377    1.0000 </r>
       <r>  -18.1587    1.0000 </r>
       <r>  -17.9174    1.0000 </r>
       <r>  -17.8495    1.0000 </r>
       <r>  -17.6926    1.0000 </r>
       <r>  -17.6701    1.0000 </r>
       <r>  -17.3871    1.0000 </r>
       <r>  -16.8765    1.0000 </r>
       <r>  -16.6814    1.0000 </r>
       <r>  -15.9394    1.0000 </r>
       <r>  -15.7034    1.0000 </r>
       <r>  -15.3482    1.0000 </r>
       <r>  -15.2706    1.0000 </r>
       <r>  -14.8466    1.0000 </r>
       <r>  -14.7916    1.0000 </r>
       <r>  -14.7608    1.0000 </r>
       <r>  -14.3361    1.0000 </r>
       <r>  -14.1849    1.0000 </r>
       <r>  -14.1111    1.0000 </r>
       <r>  -14.0915    1.0000 </r>
       <r>  -14.0285    1.0000 </r>
       <r>  -13.9208    1.0000 </r>
       <r>  -13.8766    1.0000 </r>
       <r>  -13.4539    1.0000 </r>
       <r>  -13.3701    1.0000 </r>
       <r>  -13.2873    1.0000 </r>
       <r>  -13.2669    1.0000 </r>
       <r>  -13.2038    1.0000 </r>
       <r>  -13.0552    1.0000 </r>
       <r>  -13.0072    1.0000 </r>
       <r>  -12.7978    1.0000 </r>
       <r>  -12.7634    1.0000 </r>
       <r>  -12.5088    1.0000 </r>
       <r>  -12.4403    1.0000 </r>
       <r>  -12.3698    1.0000 </r>
       <r>  -12.2013    1.0000 </r>
       <r>  -12.0866    1.0000 </r>
       <r>  -12.0491    1.0000 </r>
       <r>  -11.7372    1.0000 </r>
       <r>  -11.3645    1.0000 </r>
       <r>  -11.3134    1.0000 </r>
       <r>  -11.1873    1.0000 </r>
       <r>  -11.1720    1.0000 </r>
       <r>  -10.8173    1.0000 </r>
       <r>  -10.8021    1.0000 </r>
       <r>  -10.7011    1.0000 </r>
       <r>  -10.6475    1.0000 </r>
       <r>  -10.5852    1.0000 </r>
       <r>  -10.0058    1.0000 </r>
       <r>   -9.9663    1.0000 </r>
       <r>   -9.9271    1.0000 </r>
       <r>   -9.8553    1.0000 </r>
       <r>   -9.7945    1.0000 </r>
       <r>   -9.6975    1.0000 </r>
       <r>   -9.4486    1.0000 </r>
       <r>   -8.9436    1.0000 </r>
       <r>   -8.7832    1.0000 </r>
       <r>   -8.4828    1.0000 </r>
       <r>   -7.5516    1.0000 </r>
       <r>   -7.3968    1.0000 </r>
       <r>   -7.2238    1.0000 </r>
       <r>   -5.5070    0.0000 </r>
       <r>   -5.3166    0.0000 </r>
       <r>   -5.1089    0.0000 </r>
       <r>   -4.2892    0.0000 </r>
       <r>   -4.2322    0.0000 </r>
       <r>   -4.1639    0.0000 </r>
       <r>   -4.0637    0.0000 </r>
       <r>   -4.0315    0.0000 </r>
       <r>   -3.5533    0.0000 </r>
       <r>   -3.2718    0.0000 </r>
       <r>   -3.1677    0.0000 </r>
       <r>   -2.8565    0.0000 </r>
       <r>   -2.8231    0.0000 </r>
       <r>   -2.1045    0.0000 </r>
       <r>   -1.7768    0.0000 </r>
       <r>   -1.5679    0.0000 </r>
       <r>   -1.2823    0.0000 </r>
       <r>   -1.2566    0.0000 </r>
       <r>   -1.1811    0.0000 </r>
       <r>   -1.1441    0.0000 </r>
       <r>   -1.0522    0.0000 </r>
       <r>   -0.8922    0.0000 </r>
       <r>   -0.7708    0.0000 </r>
       <r>   -0.7354    0.0000 </r>
       <r>   -0.6259    0.0000 </r>
       <r>   -0.5754    0.0000 </r>
       <r>   -0.5394    0.0000 </r>
       <r>   -0.4236    0.0000 </r>
       <r>   -0.3507    0.0000 </r>
       <r>   -0.2265    0.0000 </r>
       <r>   -0.1443    0.0000 </r>
       <r>   -0.0550    0.0000 </r>
       <r>   -0.0503    0.0000 </r>
       <r>    0.0820    0.0000 </r>
       <r>    0.1514    0.0000 </r>
       <r>    0.2421    0.0000 </r>
       <r>    0.2898    0.0000 </r>
       <r>    0.3446    0.0000 </r>
       <r>    0.3782    0.0000 </r>
       <r>    0.4189    0.0000 </r>
       <r>    0.4715    0.0000 </r>
       <r>    0.5515    0.0000 </r>
       <r>    0.5825    0.0000 </r>
       <r>    0.6055    0.0000 </r>
       <r>    0.6445    0.0000 </r>
      </set>
     </set>
    </set>
   </array>
  </eigenvalues>
  <separator name="orbital magnetization" >
   <v name="MAGDIPOLOUT">      0.00000000      0.00000000      0.00000000</v>
  </separator>
  <dos>
   <i name="efermi">     -7.05844098 </i>
   <total>
    <array>
     <dimension dim="1">gridpoints</dimension>
     <dimension dim="2">spin</dimension>
     <field>energy</field>
     <field>total</field>
     <field>integrated</field>
     <set>
      <set comment="spin 1">
       <r>   -51.7340     0.0000     0.0000 </r>
       <r>   -51.5511     0.0000     0.0000 </r>
       <r>   -51.3682     0.0000     0.0000 </r>
       <r>   -51.1853     0.0000     0.0000 </r>
       <r>   -51.0023     0.0000     0.0000 </r>
       <r>   -50.8194     0.0000     0.0000 </r>
       <r>   -50.6365     0.0000     0.0000 </r>
       <r>   -50.4536     0.0000     0.0000 </r>
       <r>   -50.2707     0.0000     0.0000 </r>
       <r>   -50.0878     0.0000     0.0000 </r>
       <r>   -49.9049     0.0000     0.0000 </r>
       <r>   -49.7220     0.0000     0.0000 </r>
       <r>   -49.5391     0.0000     0.0000 </r>
       <r>   -49.3562     0.0000     0.0000 </r>
       <r>   -49.1733    10.9344     2.0000 </r>
       <r>   -48.9903     0.0000     4.0000 </r>
       <r>   -48.8074    10.8373     5.9822 </r>
       <r>   -48.6245     0.0000     6.0000 </r>
       <r>   -48.4416     0.0000     6.0000 </r>
       <r>   -48.2587     0.0000     6.0000 </r>
       <r>   -48.0758     0.0000     6.0000 </r>
       <r>   -47.8929     0.0000     6.0000 </r>
       <r>   -47.7100     0.0000     6.0000 </r>
       <r>   -47.5271     0.0000     6.0000 </r>
       <r>   -47.3442     0.0000     6.0000 </r>
       <r>   -47.1613     0.0000     6.0000 </r>
       <r>   -46.9783     0.0000     6.0000 </r>
       <r>   -46.7954     0.0000     6.0000 </r>
       <r>   -46.6125     0.0000     6.0000 </r>
       <r>   -46.4296     0.0000     6.0000 </r>
       <r>   -46.2467     0.0000     6.0000 </r>
       <r>   -46.0638     0.0000     6.0000 </r>
       <r>   -45.8809     0.0000     6.0000 </r>
       <r>   -45.6980     0.0000     6.0000 </r>
       <r>   -45.5151     0.0000     6.0000 </r>
       <r>   -45.3322     0.0000     6.0000 </r>
       <r>   -45.1493     0.0000     6.0000 </r>
       <r>   -44.9663     0.0000     6.0000 </r>
       <r>   -44.7834     0.0000     6.0000 </r>
       <r>   -44.6005     0.0000     6.0000 </r>
       <r>   -44.4176     0.0000     6.0000 </r>
       <r>   -44.2347     0.0000     6.0000 </r>
       <r>   -44.0518     0.0000     6.0000 </r>
       <r>   -43.8689     0.0000     6.0000 </r>
       <r>   -43.6860     0.0000     6.0000 </r>
       <r>   -43.5031     0.0000     6.0000 </r>
       <r>   -43.3202     0.0000     6.0000 </r>
       <r>   -43.1373     0.0000     6.0000 </r>
       <r>   -42.9543     0.0000     6.0000 </r>
       <r>   -42.7714     0.0000     6.0000 </r>
       <r>   -42.5885     0.0000     6.0000 </r>
       <r>   -42.4056     0.0000     6.0000 </r>
       <r>   -42.2227     0.0000     6.0000 </r>
       <r>   -42.0398     0.0000     6.0000 </r>
       <r>   -41.8569     0.0000     6.0000 </r>
       <r>   -41.6740     0.0000     6.0000 </r>
       <r>   -41.4911     0.0000     6.0000 </r>
       <r>   -41.3082     0.0000     6.0000 </r>
       <r>   -41.1253     0.0000     6.0000 </r>
       <r>   -40.9423     0.0000     6.0000 </r>
       <r>   -40.7594     0.0000     6.0000 </r>
       <r>   -40.5765     0.0000     6.0000 </r>
       <r>   -40.3936     0.0000     6.0000 </r>
       <r>   -40.2107     0.0000     6.0000 </r>
       <r>   -40.0278     0.0000     6.0000 </r>
       <r>   -39.8449     0.0000     6.0000 </r>
       <r>   -39.6620     0.0000     6.0000 </r>
       <r>   -39.4791     0.0000     6.0000 </r>
       <r>   -39.2962     0.0000     6.0000 </r>
       <r>   -39.1133     0.0000     6.0000 </r>
       <r>   -38.9303     0.0000     6.0000 </r>
       <r>   -38.7474     0.0000     6.0000 </r>
       <r>   -38.5645     0.0000     6.0000 </r>
       <r>   -38.3816     0.0000     6.0000 </r>
       <r>   -38.1987     0.0000     6.0000 </r>
       <r>   -38.0158     0.0000     6.0000 </r>
       <r>   -37.8329     0.0000     6.0000 </r>
       <r>   -37.6500     0.0000     6.0000 </r>
       <r>   -37.4671     0.0000     6.0000 </r>
       <r>   -37.2842     0.0000     6.0000 </r>
       <r>   -37.1013     0.0000     6.0000 </r>
       <r>   -36.9183     0.0000     6.0000 </r>
       <r>   -36.7354     0.0000     6.0000 </r>
       <r>   -36.5525     0.0000     6.0000 </r>
       <r>   -36.3696     0.0000     6.0000 </r>
       <r>   -36.1867     0.0000     6.0000 </r>
       <r>   -36.0038     0.0000     6.0000 </r>
       <r>   -35.8209     0.0000     6.0000 </r>
       <r>   -35.6380     0.0000     6.0000 </r>
       <r>   -35.4551     0.0000     6.0000 </r>
       <r>   -35.2722     0.0000     6.0000 </r>
       <r>   -35.0893     0.0000     6.0000 </r>
       <r>   -34.9063     0.0000     6.0000 </r>
       <r>   -34.7234     0.0000     6.0000 </r>
       <r>   -34.5405     0.0000     6.0000 </r>
       <r>   -34.3576     0.0000     6.0000 </r>
       <r>   -34.1747     0.0000     6.0000 </r>
       <r>   -33.9918     0.0000     6.0000 </r>
       <r>   -33.8089     0.0000     6.0000 </r>
       <r>   -33.6260     0.0000     6.0000 </r>
       <r>   -33.4431     0.0000     6.0000 </r>
       <r>   -33.2602     0.0000     6.0000 </r>
       <r>   -33.0773     0.0000     6.0000 </r>
       <r>   -32.8943     0.0000     6.0000 </r>
       <r>   -32.7114     0.0000     6.0000 </r>
       <r>   -32.5285     0.0000     6.0000 </r>
       <r>   -32.3456     0.0000     6.0000 </r>
       <r>   -32.1627     0.0000     6.0000 </r>
       <r>   -31.9798     0.0000     6.0000 </r>
       <r>   -31.7969     0.0000     6.0000 </r>
       <r>   -31.6140     0.0000     6.0000 </r>
       <r>   -31.4311     0.0000     6.0000 </r>
       <r>   -31.2482     0.0000     6.0000 </r>
       <r>   -31.0653     0.0000     6.0000 </r>
       <r>   -30.8823     0.0000     6.0000 </r>
       <r>   -30.6994     0.0000     6.0000 </r>
       <r>   -30.5165     0.0000     6.0000 </r>
       <r>   -30.3336     0.0000     6.0000 </r>
       <r>   -30.1507     0.0000     6.0000 </r>
       <r>   -29.9678     0.0000     6.0000 </r>
       <r>   -29.7849     0.0000     6.0000 </r>
       <r>   -29.6020     0.0000     6.0000 </r>
       <r>   -29.4191     0.0000     6.0000 </r>
       <r>   -29.2362     0.0001     6.0000 </r>
       <r>   -29.0533     0.0000     8.0000 </r>
       <r>   -28.8703     0.0000     8.0000 </r>
       <r>   -28.6874     0.0000     8.0000 </r>
       <r>   -28.5045     0.0000     8.0000 </r>
       <r>   -28.3216     0.0000     8.0000 </r>
       <r>   -28.1387     0.0000     8.0000 </r>
       <r>   -27.9558     5.0576     8.9251 </r>
       <r>   -27.7729     0.0000    10.0000 </r>
       <r>   -27.5900     0.0000    10.0000 </r>
       <r>   -27.4071     0.0000    10.0000 </r>
       <r>   -27.2242     0.0000    10.0000 </r>
       <r>   -27.0413     0.0000    10.0000 </r>
       <r>   -26.8583    10.9344    12.0000 </r>
       <r>   -26.6754     0.0000    12.0000 </r>
       <r>   -26.4925     0.0000    14.0000 </r>
       <r>   -26.3096     0.0000    14.0000 </r>
       <r>   -26.1267     0.0000    18.0000 </r>
       <r>   -25.9438     0.0000    18.0000 </r>
       <r>   -25.7609     0.0000    18.0000 </r>
       <r>   -25.5780     0.0000    18.0000 </r>
       <r>   -25.3951     0.0000    18.0000 </r>
       <r>   -25.2122     0.0000    18.0000 </r>
       <r>   -25.0293     0.0000    18.0000 </r>
       <r>   -24.8463     0.0000    18.0000 </r>
       <r>   -24.6634     0.0000    18.0000 </r>
       <r>   -24.4805     0.0000    18.0000 </r>
       <r>   -24.2976     0.0000    18.0000 </r>
       <r>   -24.1147     0.0000    18.0000 </r>
       <r>   -23.9318     0.0000    18.0000 </r>
       <r>   -23.7489     0.0000    18.0000 </r>
       <r>   -23.5660     0.0000    18.0000 </r>
       <r>   -23.3831    10.9334    19.9998 </r>
       <r>   -23.2002    10.9344    22.0000 </r>
       <r>   -23.0173     0.0000    22.0000 </r>
       <r>   -22.8343     0.0000    22.0000 </r>
       <r>   -22.6514     0.0000    22.0000 </r>
       <r>   -22.4685    12.6806    24.3194 </r>
       <r>   -22.2856    10.1689    29.8600 </r>
       <r>   -22.1027     0.0451    30.0082 </r>
       <r>   -21.9198     0.0000    32.0000 </r>
       <r>   -21.7369     0.0000    32.0000 </r>
       <r>   -21.5540     0.0000    32.0000 </r>
       <r>   -21.3711     0.0000    34.0000 </r>
       <r>   -21.1882     0.0121    34.0022 </r>
       <r>   -21.0053     0.0000    36.0000 </r>
       <r>   -20.8223    10.9344    38.0000 </r>
       <r>   -20.6394     0.0000    38.0000 </r>
       <r>   -20.4565     0.0000    38.0000 </r>
       <r>   -20.2736     0.0000    38.0000 </r>
       <r>   -20.0907     0.0000    38.0000 </r>
       <r>   -19.9078     0.0000    38.0000 </r>
       <r>   -19.7249     0.0000    38.0000 </r>
       <r>   -19.5420     9.8736    39.8060 </r>
       <r>   -19.3591     0.0000    40.0000 </r>
       <r>   -19.1762     0.0000    42.0000 </r>
       <r>   -18.9933     0.0000    42.0000 </r>
       <r>   -18.8103     1.8492    42.3382 </r>
       <r>   -18.6274     0.0000    44.0000 </r>
       <r>   -18.4445     0.0000    46.0000 </r>
       <r>   -18.2616     0.0000    46.0000 </r>
       <r>   -18.0787     0.0000    48.0000 </r>
       <r>   -17.8958    10.9222    49.9978 </r>
       <r>   -17.7129     0.0229    52.0042 </r>
       <r>   -17.5300     0.0000    56.0000 </r>
       <r>   -17.3471    10.9344    58.0000 </r>
       <r>   -17.1642     0.0000    58.0000 </r>
       <r>   -16.9813     0.0000    58.0000 </r>
       <r>   -16.7983    10.9344    60.0000 </r>
       <r>   -16.6154    10.9344    62.0000 </r>
       <r>   -16.4325     0.0000    62.0000 </r>
       <r>   -16.2496     0.0000    62.0000 </r>
       <r>   -16.0667     0.0000    62.0000 </r>
       <r>   -15.8838    10.9344    64.0000 </r>
       <r>   -15.7009     7.0047    65.2812 </r>
       <r>   -15.5180     0.0000    66.0000 </r>
       <r>   -15.3351    10.5833    67.9358 </r>
       <r>   -15.1522     0.0000    70.0000 </r>
       <r>   -14.9693     0.0000    70.0000 </r>
       <r>   -14.7863    19.3503    73.5393 </r>
       <r>   -14.6034     0.0000    76.0000 </r>
       <r>   -14.4205     0.0000    76.0000 </r>
       <r>   -14.2376     0.0000    78.0000 </r>
       <r>   -14.0547    21.8700    84.0002 </r>
       <r>   -13.8718    19.1593    89.5044 </r>
       <r>   -13.6889     0.0000    90.0000 </r>
       <r>   -13.5060     0.0000    90.0000 </r>
       <r>   -13.3231    10.9344    94.0000 </r>
       <r>   -13.1402    10.9344   100.0000 </r>
       <r>   -12.9573    10.9344   104.0000 </r>
       <r>   -12.7743    11.5915   106.1202 </r>
       <r>   -12.5914     0.0000   108.0000 </r>
       <r>   -12.4085    10.9344   112.0000 </r>
       <r>   -12.2256     0.0032   114.0006 </r>
       <r>   -12.0427    19.8488   119.6305 </r>
       <r>   -11.8598     0.0000   120.0000 </r>
       <r>   -11.6769    10.9344   122.0000 </r>
       <r>   -11.4940     0.0000   122.0000 </r>
       <r>   -11.3111    17.8144   125.2584 </r>
       <r>   -11.1282    21.8688   130.0000 </r>
       <r>   -10.9453     0.0000   130.0000 </r>
       <r>   -10.7623    21.8688   134.0000 </r>
       <r>   -10.5794    19.5985   139.5847 </r>
       <r>   -10.3965     0.0000   140.0000 </r>
       <r>   -10.2136     0.0000   140.0000 </r>
       <r>   -10.0307     0.0023   140.0004 </r>
       <r>    -9.8478    20.2768   147.7088 </r>
       <r>    -9.6649    10.9344   152.0000 </r>
       <r>    -9.4820     0.0000   152.0000 </r>
       <r>    -9.2991     0.0000   154.0000 </r>
       <r>    -9.1162     0.0000   154.0000 </r>
       <r>    -8.9333    10.1567   155.8578 </r>
       <r>    -8.7503    10.9344   158.0000 </r>
       <r>    -8.5674     0.0000   158.0000 </r>
       <r>    -8.3845     0.0000   160.0000 </r>
       <r>    -8.2016     0.0000   160.0000 </r>
       <r>    -8.0187     0.0000   160.0000 </r>
       <r>    -7.8358     0.0000   160.0000 </r>
       <r>    -7.6529     0.0000   160.0000 </r>
       <r>    -7.4700     0.0000   162.0000 </r>
       <r>    -7.2871     0.0000   164.0000 </r>
       <r>    -7.1042     0.0000   166.0000 </r>
       <r>    -6.9213     0.0000   166.0000 </r>
       <r>    -6.7384     0.0000   166.0000 </r>
       <r>    -6.5554     0.0000   166.0000 </r>
       <r>    -6.3725     0.0000   166.0000 </r>
       <r>    -6.1896     0.0000   166.0000 </r>
       <r>    -6.0067     0.0000   166.0000 </r>
       <r>    -5.8238     0.0000   166.0000 </r>
       <r>    -5.6409     0.0000   166.0000 </r>
       <r>    -5.4580    10.9344   168.0000 </r>
       <r>    -5.2751    10.9344   170.0000 </r>
       <r>    -5.0922    10.8357   171.9819 </r>
       <r>    -4.9093     0.0000   172.0000 </r>
       <r>    -4.7264     0.0000   172.0000 </r>
       <r>    -4.5434     0.0000   172.0000 </r>
       <r>    -4.3605     0.0000   172.0000 </r>
       <r>    -4.1776    11.2225   176.0527 </r>
       <r>    -3.9947    21.8688   182.0000 </r>
       <r>    -3.8118     0.0000   182.0000 </r>
       <r>    -3.6289     0.0000   182.0000 </r>
       <r>    -3.4460     0.0000   184.0000 </r>
       <r>    -3.2631     9.7470   185.7828 </r>
       <r>    -3.0802     0.0000   188.0000 </r>
       <r>    -2.8973     0.0000   188.0000 </r>
       <r>    -2.7144     0.0000   192.0000 </r>
       <r>    -2.5314     0.0000   192.0000 </r>
       <r>    -2.3485     0.0000   192.0000 </r>
       <r>    -2.1656     0.0000   192.0000 </r>
       <r>    -1.9827     0.0000   194.0000 </r>
       <r>    -1.7998     0.0061   194.0011 </r>
       <r>    -1.6169     0.0000   196.0000 </r>
       <r>    -1.4340     0.0000   198.0000 </r>
       <r>    -1.2511    19.4855   201.5641 </r>
       <r>    -1.0682    11.0671   206.0243 </r>
       <r>    -0.8853     9.1389   209.6716 </r>
       <r>    -0.7024    21.8688   214.0000 </r>
       <r>    -0.5194    21.8429   219.9953 </r>
       <r>    -0.3365    10.6870   223.9547 </r>
       <r>    -0.1536    11.9635   226.1882 </r>
       <r>     0.0293    10.9344   232.0000 </r>
       <r>     0.2122    10.9345   236.0000 </r>
       <r>     0.3951    21.7794   243.9837 </r>
       <r>     0.5780    13.7937   250.5230 </r>
       <r>     0.7609     0.0000   256.0000 </r>
       <r>     0.9438     0.0000   256.0000 </r>
       <r>     1.1267     0.0000   256.0000 </r>
       <r>     1.3096     0.0000   256.0000 </r>
       <r>     1.4926     0.0000   256.0000 </r>
       <r>     1.6755     0.0000   256.0000 </r>
       <r>     1.8584     0.0000   256.0000 </r>
       <r>     2.0413     0.0000   256.0000 </r>
       <r>     2.2242     0.0000   256.0000 </r>
       <r>     2.4071     0.0000   256.0000 </r>
       <r>     2.5900     0.0000   256.0000 </r>
       <r>     2.7729     0.0000   256.0000 </r>
       <r>     2.9558     0.0000   256.0000 </r>
       <r>     3.1387     0.0000   256.0000 </r>
      </set>
      <set comment="spin 2">
       <r>   -51.7340     0.0000     0.0000 </r>
       <r>   -51.5511     0.0000     0.0000 </r>
       <r>   -51.3682     0.0000     0.0000 </r>
       <r>   -51.1853     0.0000     0.0000 </r>
       <r>   -51.0023     0.0000     0.0000 </r>
       <r>   -50.8194     0.0000     0.0000 </r>
       <r>   -50.6365     0.0000     0.0000 </r>
       <r>   -50.4536     0.0000     0.0000 </r>
       <r>   -50.2707     0.0000     0.0000 </r>
       <r>   -50.0878     0.0000     0.0000 </r>
       <r>   -49.9049     0.0000     0.0000 </r>
       <r>   -49.7220     0.0000     0.0000 </r>
       <r>   -49.5391     0.0000     0.0000 </r>
       <r>   -49.3562     0.0000     0.0000 </r>
       <r>   -49.1733    10.9344     2.0000 </r>
       <r>   -48.9903     0.0000     4.0000 </r>
       <r>   -48.8074    10.8373     5.9822 </r>
       <r>   -48.6245     0.0000     6.0000 </r>
       <r>   -48.4416     0.0000     6.0000 </r>
       <r>   -48.2587     0.0000     6.0000 </r>
       <r>   -48.0758     0.0000     6.0000 </r>
       <r>   -47.8929     0.0000     6.0000 </r>
       <r>   -47.7100     0.0000     6.0000 </r>
       <r>   -47.5271     0.0000     6.0000 </r>
       <r>   -47.3442     0.0000     6.0000 </r>
       <r>   -47.1613     0.0000     6.0000 </r>
       <r>   -46.9783     0.0000     6.0000 </r>
       <r>   -46.7954     0.0000     6.0000 </r>
       <r>   -46.6125     0.0000     6.0000 </r>
       <r>   -46.4296     0.0000     6.0000 </r>
       <r>   -46.2467     0.0000     6.0000 </r>
       <r>   -46.0638     0.0000     6.0000 </r>
       <r>   -45.8809     0.0000     6.0000 </r>
       <r>   -45.6980     0.0000     6.0000 </r>
       <r>   -45.5151     0.0000     6.0000 </r>
       <r>   -45.3322     0.0000     6.0000 </r>
       <r>   -45.1493     0.0000     6.0000 </r>
       <r>   -44.9663     0.0000     6.0000 </r>
       <r>   -44.7834     0.0000     6.0000 </r>
       <r>   -44.6005     0.0000     6.0000 </r>
       <r>   -44.4176     0.0000     6.0000 </r>
       <r>   -44.2347     0.0000     6.0000 </r>
       <r>   -44.0518     0.0000     6.0000 </r>
       <r>   -43.8689     0.0000     6.0000 </r>
       <r>   -43.6860     0.0000     6.0000 </r>
       <r>   -43.5031     0.0000     6.0000 </r>
       <r>   -43.3202     0.0000     6.0000 </r>
       <r>   -43.1373     0.0000     6.0000 </r>
       <r>   -42.9543     0.0000     6.0000 </r>
       <r>   -42.7714     0.0000     6.0000 </r>
       <r>   -42.5885     0.0000     6.0000 </r>
       <r>   -42.4056     0.0000     6.0000 </r>
       <r>   -42.2227     0.0000     6.0000 </r>
       <r>   -42.0398     0.0000     6.0000 </r>
       <r>   -41.8569     0.0000     6.0000 </r>
       <r>   -41.6740     0.0000     6.0000 </r>
       <r>   -41.4911     0.0000     6.0000 </r>
       <r>   -41.3082     0.0000     6.0000 </r>
       <r>   -41.1253     0.0000     6.0000 </r>
       <r>   -40.9423     0.0000     6.0000 </r>
       <r>   -40.7594     0.0000     6.0000 </r>
       <r>   -40.5765     0.0000     6.0000 </r>
       <r>   -40.3936     0.0000     6.0000 </r>
       <r>   -40.2107     0.0000     6.0000 </r>
       <r>   -40.0278     0.0000     6.0000 </r>
       <r>   -39.8449     0.0000     6.0000 </r>
       <r>   -39.6620     0.0000     6.0000 </r>
       <r>   -39.4791     0.0000     6.0000 </r>
       <r>   -39.2962     0.0000     6.0000 </r>
       <r>   -39.1133     0.0000     6.0000 </r>
       <r>   -38.9303     0.0000     6.0000 </r>
       <r>   -38.7474     0.0000     6.0000 </r>
       <r>   -38.5645     0.0000     6.0000 </r>
       <r>   -38.3816     0.0000     6.0000 </r>
       <r>   -38.1987     0.0000     6.0000 </r>
       <r>   -38.0158     0.0000     6.0000 </r>
       <r>   -37.8329     0.0000     6.0000 </r>
       <r>   -37.6500     0.0000     6.0000 </r>
       <r>   -37.4671     0.0000     6.0000 </r>
       <r>   -37.2842     0.0000     6.0000 </r>
       <r>   -37.1013     0.0000     6.0000 </r>
       <r>   -36.9183     0.0000     6.0000 </r>
       <r>   -36.7354     0.0000     6.0000 </r>
       <r>   -36.5525     0.0000     6.0000 </r>
       <r>   -36.3696     0.0000     6.0000 </r>
       <r>   -36.1867     0.0000     6.0000 </r>
       <r>   -36.0038     0.0000     6.0000 </r>
       <r>   -35.8209     0.0000     6.0000 </r>
       <r>   -35.6380     0.0000     6.0000 </r>
       <r>   -35.4551     0.0000     6.0000 </r>
       <r>   -35.2722     0.0000     6.0000 </r>
       <r>   -35.0893     0.0000     6.0000 </r>
       <r>   -34.9063     0.0000     6.0000 </r>
       <r>   -34.7234     0.0000     6.0000 </r>
       <r>   -34.5405     0.0000     6.0000 </r>
       <r>   -34.3576     0.0000     6.0000 </r>
       <r>   -34.1747     0.0000     6.0000 </r>
       <r>   -33.9918     0.0000     6.0000 </r>
       <r>   -33.8089     0.0000     6.0000 </r>
       <r>   -33.6260     0.0000     6.0000 </r>
       <r>   -33.4431     0.0000     6.0000 </r>
       <r>   -33.2602     0.0000     6.0000 </r>
       <r>   -33.0773     0.0000     6.0000 </r>
       <r>   -32.8943     0.0000     6.0000 </r>
       <r>   -32.7114     0.0000     6.0000 </r>
       <r>   -32.5285     0.0000     6.0000 </r>
       <r>   -32.3456     0.0000     6.0000 </r>
       <r>   -32.1627     0.0000     6.0000 </r>
       <r>   -31.9798     0.0000     6.0000 </r>
       <r>   -31.7969     0.0000     6.0000 </r>
       <r>   -31.6140     0.0000     6.0000 </r>
       <r>   -31.4311     0.0000     6.0000 </r>
       <r>   -31.2482     0.0000     6.0000 </r>
       <r>   -31.0653     0.0000     6.0000 </r>
       <r>   -30.8823     0.0000     6.0000 </r>
       <r>   -30.6994     0.0000     6.0000 </r>
       <r>   -30.5165     0.0000     6.0000 </r>
       <r>   -30.3336     0.0000     6.0000 </r>
       <r>   -30.1507     0.0000     6.0000 </r>
       <r>   -29.9678     0.0000     6.0000 </r>
       <r>   -29.7849     0.0000     6.0000 </r>
       <r>   -29.6020     0.0000     6.0000 </r>
       <r>   -29.4191     0.0000     6.0000 </r>
       <r>   -29.2362     0.0001     6.0000 </r>
       <r>   -29.0533     0.0000     8.0000 </r>
       <r>   -28.8703     0.0000     8.0000 </r>
       <r>   -28.6874     0.0000     8.0000 </r>
       <r>   -28.5045     0.0000     8.0000 </r>
       <r>   -28.3216     0.0000     8.0000 </r>
       <r>   -28.1387     0.0000     8.0000 </r>
       <r>   -27.9558     5.0576     8.9251 </r>
       <r>   -27.7729     0.0000    10.0000 </r>
       <r>   -27.5900     0.0000    10.0000 </r>
       <r>   -27.4071     0.0000    10.0000 </r>
       <r>   -27.2242     0.0000    10.0000 </r>
       <r>   -27.0413     0.0000    10.0000 </r>
       <r>   -26.8583    10.9344    12.0000 </r>
       <r>   -26.6754     0.0000    12.0000 </r>
       <r>   -26.4925     0.0000    14.0000 </r>
       <r>   -26.3096     0.0000    14.0000 </r>
       <r>   -26.1267     0.0000    18.0000 </r>
       <r>   -25.9438     0.0000    18.0000 </r>
       <r>   -25.7609     0.0000    18.0000 </r>
       <r>   -25.5780     0.0000    18.0000 </r>
       <r>   -25.3951     0.0000    18.0000 </r>
       <r>   -25.2122     0.0000    18.0000 </r>
       <r>   -25.0293     0.0000    18.0000 </r>
       <r>   -24.8463     0.0000    18.0000 </r>
       <r>   -24.6634     0.0000    18.0000 </r>
       <r>   -24.4805     0.0000    18.0000 </r>
       <r>   -24.2976     0.0000    18.0000 </r>
       <r>   -24.1147     0.0000    18.0000 </r>
       <r>   -23.9318     0.0000    18.0000 </r>
       <r>   -23.7489     0.0000    18.0000 </r>
       <r>   -23.5660     0.0000    18.0000 </r>
       <r>   -23.3831    10.9334    19.9998 </r>
       <r>   -23.2002    10.9344    22.0000 </r>
       <r>   -23.0173     0.0000    22.0000 </r>
       <r>   -22.8343     0.0000    22.0000 </r>
       <r>   -22.6514     0.0000    22.0000 </r>
       <r>   -22.4685    12.6806    24.3194 </r>
       <r>   -22.2856    10.1689    29.8600 </r>
       <r>   -22.1027     0.0451    30.0082 </r>
       <r>   -21.9198     0.0000    32.0000 </r>
       <r>   -21.7369     0.0000    32.0000 </r>
       <r>   -21.5540     0.0000    32.0000 </r>
       <r>   -21.3711     0.0000    34.0000 </r>
       <r>   -21.1882     0.0121    34.0022 </r>
       <r>   -21.0053     0.0000    36.0000 </r>
       <r>   -20.8223    10.9344    38.0000 </r>
       <r>   -20.6394     0.0000    38.0000 </r>
       <r>   -20.4565     0.0000    38.0000 </r>
       <r>   -20.2736     0.0000    38.0000 </r>
       <r>   -20.0907     0.0000    38.0000 </r>
       <r>   -19.9078     0.0000    38.0000 </r>
       <r>   -19.7249     0.0000    38.0000 </r>
       <r>   -19.5420     9.8736    39.8060 </r>
       <r>   -19.3591     0.0000    40.0000 </r>
       <r>   -19.1762     0.0000    42.0000 </r>
       <r>   -18.9933     0.0000    42.0000 </r>
       <r>   -18.8103     1.8492    42.3382 </r>
       <r>   -18.6274     0.0000    44.0000 </r>
       <r>   -18.4445     0.0000    46.0000 </r>
       <r>   -18.2616     0.0000    46.0000 </r>
       <r>   -18.0787     0.0000    48.0000 </r>
       <r>   -17.8958    10.9222    49.9978 </r>
       <r>   -17.7129     0.0229    52.0042 </r>
       <r>   -17.5300     0.0000    56.0000 </r>
       <r>   -17.3471    10.9344    58.0000 </r>
       <r>   -17.1642     0.0000    58.0000 </r>
       <r>   -16.9813     0.0000    58.0000 </r>
       <r>   -16.7983    10.9344    60.0000 </r>
       <r>   -16.6154    10.9344    62.0000 </r>
       <r>   -16.4325     0.0000    62.0000 </r>
       <r>   -16.2496     0.0000    62.0000 </r>
       <r>   -16.0667     0.0000    62.0000 </r>
       <r>   -15.8838    10.9344    64.0000 </r>
       <r>   -15.7009     7.0047    65.2812 </r>
       <r>   -15.5180     0.0000    66.0000 </r>
       <r>   -15.3351    10.5833    67.9358 </r>
       <r>   -15.1522     0.0000    70.0000 </r>
       <r>   -14.9693     0.0000    70.0000 </r>
       <r>   -14.7863    19.3503    73.5393 </r>
       <r>   -14.6034     0.0000    76.0000 </r>
       <r>   -14.4205     0.0000    76.0000 </r>
       <r>   -14.2376     0.0000    78.0000 </r>
       <r>   -14.0547    21.8700    84.0002 </r>
       <r>   -13.8718    19.1593    89.5044 </r>
       <r>   -13.6889     0.0000    90.0000 </r>
       <r>   -13.5060     0.0000    90.0000 </r>
       <r>   -13.3231    10.9344    94.0000 </r>
       <r>   -13.1402    10.9344   100.0000 </r>
       <r>   -12.9573    10.9344   104.0000 </r>
       <r>   -12.7743    11.5915   106.1202 </r>
       <r>   -12.5914     0.0000   108.0000 </r>
       <r>   -12.4085    10.9344   112.0000 </r>
       <r>   -12.2256     0.0032   114.0006 </r>
       <r>   -12.0427    19.8488   119.6305 </r>
       <r>   -11.8598     0.0000   120.0000 </r>
       <r>   -11.6769    10.9344   122.0000 </r>
       <r>   -11.4940     0.0000   122.0000 </r>
       <r>   -11.3111    17.8144   125.2584 </r>
       <r>   -11.1282    21.8688   130.0000 </r>
       <r>   -10.9453     0.0000   130.0000 </r>
       <r>   -10.7623    21.8688   134.0000 </r>
       <r>   -10.5794    19.5984   139.5847 </r>
       <r>   -10.3965     0.0000   140.0000 </r>
       <r>   -10.2136     0.0000   140.0000 </r>
       <r>   -10.0307     0.0023   140.0004 </r>
       <r>    -9.8478    20.2768   147.7088 </r>
       <r>    -9.6649    10.9344   152.0000 </r>
       <r>    -9.4820     0.0000   152.0000 </r>
       <r>    -9.2991     0.0000   154.0000 </r>
       <r>    -9.1162     0.0000   154.0000 </r>
       <r>    -8.9333    10.1567   155.8578 </r>
       <r>    -8.7503    10.9344   158.0000 </r>
       <r>    -8.5674     0.0000   158.0000 </r>
       <r>    -8.3845     0.0000   160.0000 </r>
       <r>    -8.2016     0.0000   160.0000 </r>
       <r>    -8.0187     0.0000   160.0000 </r>
       <r>    -7.8358     0.0000   160.0000 </r>
       <r>    -7.6529     0.0000   160.0000 </r>
       <r>    -7.4700     0.0000   162.0000 </r>
       <r>    -7.2871     0.0000   164.0000 </r>
       <r>    -7.1042     0.0000   166.0000 </r>
       <r>    -6.9213     0.0000   166.0000 </r>
       <r>    -6.7384     0.0000   166.0000 </r>
       <r>    -6.5554     0.0000   166.0000 </r>
       <r>    -6.3725     0.0000   166.0000 </r>
       <r>    -6.1896     0.0000   166.0000 </r>
       <r>    -6.0067     0.0000   166.0000 </r>
       <r>    -5.8238     0.0000   166.0000 </r>
       <r>    -5.6409     0.0000   166.0000 </r>
       <r>    -5.4580    10.9344   168.0000 </r>
       <r>    -5.2751    10.9344   170.0000 </r>
       <r>    -5.0922    10.8357   171.9819 </r>
       <r>    -4.9093     0.0000   172.0000 </r>
       <r>    -4.7264     0.0000   172.0000 </r>
       <r>    -4.5434     0.0000   172.0000 </r>
       <r>    -4.3605     0.0000   172.0000 </r>
       <r>    -4.1776    11.2225   176.0527 </r>
       <r>    -3.9947    21.8688   182.0000 </r>
       <r>    -3.8118     0.0000   182.0000 </r>
       <r>    -3.6289     0.0000   182.0000 </r>
       <r>    -3.4460     0.0000   184.0000 </r>
       <r>    -3.2631     9.7470   185.7828 </r>
       <r>    -3.0802     0.0000   188.0000 </r>
       <r>    -2.8973     0.0000   188.0000 </r>
       <r>    -2.7144     0.0000   192.0000 </r>
       <r>    -2.5314     0.0000   192.0000 </r>
       <r>    -2.3485     0.0000   192.0000 </r>
       <r>    -2.1656     0.0000   192.0000 </r>
       <r>    -1.9827     0.0000   194.0000 </r>
       <r>    -1.7998     0.0061   194.0011 </r>
       <r>    -1.6169     0.0000   196.0000 </r>
       <r>    -1.4340     0.0000   198.0000 </r>
       <r>    -1.2511    19.4847   201.5639 </r>
       <r>    -1.0682    11.0671   206.0243 </r>
       <r>    -0.8853     9.1391   209.6716 </r>
       <r>    -0.7024    21.8688   214.0000 </r>
       <r>    -0.5194    21.8429   219.9953 </r>
       <r>    -0.3365    10.6870   223.9548 </r>
       <r>    -0.1536    11.9634   226.1882 </r>
       <r>     0.0293    10.9344   232.0000 </r>
       <r>     0.2122    10.9345   236.0000 </r>
       <r>     0.3951    21.7795   243.9837 </r>
       <r>     0.5780    13.7933   250.5229 </r>
       <r>     0.7609     0.0000   256.0000 </r>
       <r>     0.9438     0.0000   256.0000 </r>
       <r>     1.1267     0.0000   256.0000 </r>
       <r>     1.3096     0.0000   256.0000 </r>
       <r>     1.4926     0.0000   256.0000 </r>
       <r>     1.6755     0.0000   256.0000 </r>
       <r>     1.8584     0.0000   256.0000 </r>
       <r>     2.0413     0.0000   256.0000 </r>
       <r>     2.2242     0.0000   256.0000 </r>
       <r>     2.4071     0.0000   256.0000 </r>
       <r>     2.5900     0.0000   256.0000 </r>
       <r>     2.7729     0.0000   256.0000 </r>
       <r>     2.9558     0.0000   256.0000 </r>
       <r>     3.1387     0.0000   256.0000 </r>
      </set>
     </set>
    </array>
   </total>
  </dos>
 </calculation>
 <structure name="finalpos" >
  <crystal>
   <varray name="basis" >
    <v>      20.00000000       0.00000000       0.00000000 </v>
    <v>       0.00000000      20.00000000       0.00000000 </v>
    <v>       0.00000000       0.00000000      20.00000000 </v>
   </varray>
   <i name="volume">   8000.00000000 </i>
   <varray name="rec_basis" >
    <v>       0.05000000       0.00000000       0.00000000 </v>
    <v>       0.00000000       0.05000000       0.00000000 </v>
    <v>       0.00000000       0.00000000       0.05000000 </v>
   </varray>
  </crystal>
  <varray name="positions" >
   <v>       0.50295190       0.58590820       0.62668073 </v>
   <v>       0.43793752       0.56561110       0.32757008 </v>
   <v>       0.45581208       0.52423376       0.38051465 </v>
   <v>       0.47372925       0.61530131       0.44986522 </v>
   <v>       0.45595175       0.65963312       0.39935201 </v>
   <v>       0.43785737       0.63472201       0.33675972 </v>
   <v>       0.52307882       0.32955005       0.67474498 </v>
   <v>       0.49710163       0.37190466       0.62618823 </v>
   <v>       0.60227374       0.41933300       0.60593616 </v>
   <v>       0.63096398       0.37761922       0.65422416 </v>
   <v>       0.73964927       0.52855915       0.53463181 </v>
   <v>       0.70082162       0.56612858       0.49044049 </v>
   <v>       0.63257913       0.55363620       0.48652424 </v>
   <v>       0.63952130       0.46927713       0.56732841 </v>
   <v>       0.70843899       0.47974495       0.57314689 </v>
   <v>       0.59134754       0.33224398       0.68903016 </v>
   <v>       0.36211554       0.48866484       0.56417415 </v>
   <v>       0.40790931       0.62211625       0.69058213 </v>
   <v>       0.47619960       0.62606623       0.67660612 </v>
   <v>       0.29334713       0.47671938       0.56830116 </v>
   <v>       0.39825425       0.53800137       0.60426081 </v>
   <v>       0.36904589       0.57756069       0.65398228 </v>
   <v>       0.37289802       0.40579857       0.48223443 </v>
   <v>       0.30486503       0.39173492       0.48443166 </v>
   <v>       0.26422003       0.42785518       0.52821594 </v>
   <v>       0.48989745       0.29510618       0.70074864 </v>
   <v>       0.61334240       0.29968355       0.72673159 </v>
   <v>       0.68424189       0.38076917       0.66478776 </v>
   <v>       0.54225374       0.36233861       0.46129841 </v>
   <v>       0.31579090       0.57306911       0.66420366 </v>
   <v>       0.44416348       0.37118871       0.61364770 </v>
   <v>       0.42392665       0.66833230       0.29622671 </v>
   <v>       0.45642762       0.71313270       0.40950260 </v>
   <v>       0.48809132       0.63358802       0.49907234 </v>
   <v>       0.56912778       0.41808713       0.41480476 </v>
   <v>       0.73767440       0.44963919       0.60776512 </v>
   <v>       0.72277620       0.60481012       0.45904817 </v>
   <v>       0.45570253       0.47012894       0.37468790 </v>
   <v>       0.40614333       0.37888556       0.44852541 </v>
   <v>       0.28443799       0.35306162       0.45202062 </v>
   <v>       0.79326502       0.53703787       0.53892527 </v>
   <v>       0.55589708       0.58769132       0.61440612 </v>
   <v>       0.42412006       0.54328620       0.27986105 </v>
   <v>       0.50894741       0.65984570       0.70400156 </v>
   <v>       0.26265982       0.50568523       0.60265428 </v>
   <v>       0.21072272       0.41813760       0.53105039 </v>
   <v>       0.60090654       0.58197914       0.45254259 </v>
   <v>       0.38544357       0.65296704       0.72941133 </v>
   <v>       0.47424490       0.54794204       0.44140236 </v>
   <v>       0.40180479       0.45306079       0.52108436 </v>
   <v>       0.53520702       0.41608490       0.59173240 </v>
   <v>       0.46544808       0.54254992       0.59041194 </v>
   <v>       0.60138410       0.50650621       0.52397638 </v>
   <v>       0.53073984       0.40562607       0.44215451 </v>
   <v>       0.50088568       0.48087016       0.51934246 </v>
  </varray>
  <varray name="selective"  type="logical" >
   <v type="logical" >  T  T  T </v>
   <v type="logical" >  T  T  T </v>
   <v type="logical" >  T  T  T </v>
   <v type="logical" >  T  T  T </v>
   <v type="logical" >  T  T  T </v>
   <v type="logical" >  T  T  T </v>
   <v type="logical" >  T  T  T </v>
   <v type="logical" >  T  T  T </v>
   <v type="logical" >  T  T  T </v>
   <v type="logical" >  T  T  T </v>
   <v type="logical" >  T  T  T </v>
   <v type="logical" >  T  T  T </v>
   <v type="logical" >  T  T  T </v>
   <v type="logical" >  T  T  T </v>
   <v type="logical" >  T  T  T </v>
   <v type="logical" >  T  T  T </v>
   <v type="logical" >  T  T  T </v>
   <v type="logical" >  T  T  T </v>
   <v type="logical" >  T  T  T </v>
   <v type="logical" >  T  T  T </v>
   <v type="logical" >  T  T  T </v>
   <v type="logical" >  T  T  T </v>
   <v type="logical" >  T  T  T </v>
   <v type="logical" >  T  T  T </v>
   <v type="logical" >  T  T  T </v>
   <v type="logical" >  T  T  T </v>
   <v type="logical" >  T  T  T </v>
   <v type="logical" >  T  T  T </v>
   <v type="logical" >  T  T  T </v>
   <v type="logical" >  T  T  T </v>
   <v type="logical" >  T  T  T </v>
   <v type="logical" >  T  T  T </v>
   <v type="logical" >  T  T  T </v>
   <v type="logical" >  T  T  T </v>
   <v type="logical" >  T  T  T </v>
   <v type="logical" >  T  T  T </v>
   <v type="logical" >  T  T  T </v>
   <v type="logical" >  T  T  T </v>
   <v type="logical" >  T  T  T </v>
   <v type="logical" >  T  T  T </v>
   <v type="logical" >  T  T  T </v>
   <v type="logical" >  T  T  T </v>
   <v type="logical" >  T  T  T </v>
   <v type="logical" >  T  T  T </v>
   <v type="logical" >  T  T  T </v>
   <v type="logical" >  T  T  T </v>
   <v type="logical" >  T  T  T </v>
   <v type="logical" >  T  T  T </v>
   <v type="logical" >  T  T  T </v>
   <v type="logical" >  T  T  T </v>
   <v type="logical" >  T  T  T </v>
   <v type="logical" >  T  T  T </v>
   <v type="logical" >  T  T  T </v>
   <v type="logical" >  T  T  T </v>
   <v type="logical" >  T  T  T </v>
  </varray>
  <nose>
   <v>      -3.00000000       0.00000000       0.00010000       0.00010000 </v>
  </nose>
 </structure>
</modeling>
