  55  55   0   0
  0.1454545E+03  0.2000000E-08  0.2000000E-08  0.2000000E-08  0.5000000E-15
  1.000000000000000E-004
  CAR 
 c2_oh2_ruthenium_mol                    
      3.21741784    -51.65266354  301     -7.16217256      1.00000000
    -51.653  0.0000E+00  0.0000E+00  0.0000E+00  0.0000E+00
    -51.470  0.0000E+00  0.0000E+00  0.0000E+00  0.0000E+00
    -51.287  0.0000E+00  0.0000E+00  0.0000E+00  0.0000E+00
    -51.104  0.0000E+00  0.0000E+00  0.0000E+00  0.0000E+00
    -50.921  0.0000E+00  0.0000E+00  0.0000E+00  0.0000E+00
    -50.738  0.0000E+00  0.0000E+00  0.0000E+00  0.0000E+00
    -50.555  0.0000E+00  0.0000E+00  0.0000E+00  0.0000E+00
    -50.372  0.0000E+00  0.0000E+00  0.0000E+00  0.0000E+00
    -50.189  0.0000E+00  0.0000E+00  0.0000E+00  0.0000E+00
    -50.007  0.0000E+00  0.0000E+00  0.0000E+00  0.0000E+00
    -49.824  0.0000E+00  0.0000E+00  0.0000E+00  0.0000E+00
    -49.641  0.0000E+00  0.0000E+00  0.0000E+00  0.0000E+00
    -49.458  0.0000E+00  0.0000E+00  0.0000E+00  0.0000E+00
    -49.275  0.0000E+00  0.0000E+00  0.0000E+00  0.0000E+00
    -49.092  0.1124E+02  0.1124E+02  0.2055E+01  0.2055E+01
    -48.909  0.0000E+00  0.0000E+00  0.4000E+01  0.4000E+01
    -48.726  0.1093E+02  0.1093E+02  0.6000E+01  0.6000E+01
    -48.543  0.0000E+00  0.0000E+00  0.6000E+01  0.6000E+01
    -48.360  0.0000E+00  0.0000E+00  0.6000E+01  0.6000E+01
    -48.178  0.0000E+00  0.0000E+00  0.6000E+01  0.6000E+01
    -47.995  0.0000E+00  0.0000E+00  0.6000E+01  0.6000E+01
    -47.812  0.0000E+00  0.0000E+00  0.6000E+01  0.6000E+01
    -47.629  0.0000E+00  0.0000E+00  0.6000E+01  0.6000E+01
    -47.446  0.0000E+00  0.0000E+00  0.6000E+01  0.6000E+01
    -47.263  0.0000E+00  0.0000E+00  0.6000E+01  0.6000E+01
    -47.080  0.0000E+00  0.0000E+00  0.6000E+01  0.6000E+01
    -46.897  0.0000E+00  0.0000E+00  0.6000E+01  0.6000E+01
    -46.714  0.0000E+00  0.0000E+00  0.6000E+01  0.6000E+01
    -46.531  0.0000E+00  0.0000E+00  0.6000E+01  0.6000E+01
    -46.349  0.0000E+00  0.0000E+00  0.6000E+01  0.6000E+01
    -46.166  0.0000E+00  0.0000E+00  0.6000E+01  0.6000E+01
    -45.983  0.0000E+00  0.0000E+00  0.6000E+01  0.6000E+01
    -45.800  0.0000E+00  0.0000E+00  0.6000E+01  0.6000E+01
    -45.617  0.0000E+00  0.0000E+00  0.6000E+01  0.6000E+01
    -45.434  0.0000E+00  0.0000E+00  0.6000E+01  0.6000E+01
    -45.251  0.0000E+00  0.0000E+00  0.6000E+01  0.6000E+01
    -45.068  0.0000E+00  0.0000E+00  0.6000E+01  0.6000E+01
    -44.885  0.0000E+00  0.0000E+00  0.6000E+01  0.6000E+01
    -44.702  0.0000E+00  0.0000E+00  0.6000E+01  0.6000E+01
    -44.520  0.0000E+00  0.0000E+00  0.6000E+01  0.6000E+01
    -44.337  0.0000E+00  0.0000E+00  0.6000E+01  0.6000E+01
    -44.154  0.0000E+00  0.0000E+00  0.6000E+01  0.6000E+01
    -43.971  0.0000E+00  0.0000E+00  0.6000E+01  0.6000E+01
    -43.788  0.0000E+00  0.0000E+00  0.6000E+01  0.6000E+01
    -43.605  0.0000E+00  0.0000E+00  0.6000E+01  0.6000E+01
    -43.422  0.0000E+00  0.0000E+00  0.6000E+01  0.6000E+01
    -43.239  0.0000E+00  0.0000E+00  0.6000E+01  0.6000E+01
    -43.056  0.0000E+00  0.0000E+00  0.6000E+01  0.6000E+01
    -42.873  0.0000E+00  0.0000E+00  0.6000E+01  0.6000E+01
    -42.691  0.0000E+00  0.0000E+00  0.6000E+01  0.6000E+01
    -42.508  0.0000E+00  0.0000E+00  0.6000E+01  0.6000E+01
    -42.325  0.0000E+00  0.0000E+00  0.6000E+01  0.6000E+01
    -42.142  0.0000E+00  0.0000E+00  0.6000E+01  0.6000E+01
    -41.959  0.0000E+00  0.0000E+00  0.6000E+01  0.6000E+01
    -41.776  0.0000E+00  0.0000E+00  0.6000E+01  0.6000E+01
    -41.593  0.0000E+00  0.0000E+00  0.6000E+01  0.6000E+01
    -41.410  0.0000E+00  0.0000E+00  0.6000E+01  0.6000E+01
    -41.227  0.0000E+00  0.0000E+00  0.6000E+01  0.6000E+01
    -41.044  0.0000E+00  0.0000E+00  0.6000E+01  0.6000E+01
    -40.862  0.0000E+00  0.0000E+00  0.6000E+01  0.6000E+01
    -40.679  0.0000E+00  0.0000E+00  0.6000E+01  0.6000E+01
    -40.496  0.0000E+00  0.0000E+00  0.6000E+01  0.6000E+01
    -40.313  0.0000E+00  0.0000E+00  0.6000E+01  0.6000E+01
    -40.130  0.0000E+00  0.0000E+00  0.6000E+01  0.6000E+01
    -39.947  0.0000E+00  0.0000E+00  0.6000E+01  0.6000E+01
    -39.764  0.0000E+00  0.0000E+00  0.6000E+01  0.6000E+01
    -39.581  0.0000E+00  0.0000E+00  0.6000E+01  0.6000E+01
    -39.398  0.0000E+00  0.0000E+00  0.6000E+01  0.6000E+01
    -39.215  0.0000E+00  0.0000E+00  0.6000E+01  0.6000E+01
    -39.033  0.0000E+00  0.0000E+00  0.6000E+01  0.6000E+01
    -38.850  0.0000E+00  0.0000E+00  0.6000E+01  0.6000E+01
    -38.667  0.0000E+00  0.0000E+00  0.6000E+01  0.6000E+01
    -38.484  0.0000E+00  0.0000E+00  0.6000E+01  0.6000E+01
    -38.301  0.0000E+00  0.0000E+00  0.6000E+01  0.6000E+01
    -38.118  0.0000E+00  0.0000E+00  0.6000E+01  0.6000E+01
    -37.935  0.0000E+00  0.0000E+00  0.6000E+01  0.6000E+01
    -37.752  0.0000E+00  0.0000E+00  0.6000E+01  0.6000E+01
    -37.569  0.0000E+00  0.0000E+00  0.6000E+01  0.6000E+01
    -37.386  0.0000E+00  0.0000E+00  0.6000E+01  0.6000E+01
    -37.204  0.0000E+00  0.0000E+00  0.6000E+01  0.6000E+01
    -37.021  0.0000E+00  0.0000E+00  0.6000E+01  0.6000E+01
    -36.838  0.0000E+00  0.0000E+00  0.6000E+01  0.6000E+01
    -36.655  0.0000E+00  0.0000E+00  0.6000E+01  0.6000E+01
    -36.472  0.0000E+00  0.0000E+00  0.6000E+01  0.6000E+01
    -36.289  0.0000E+00  0.0000E+00  0.6000E+01  0.6000E+01
    -36.106  0.0000E+00  0.0000E+00  0.6000E+01  0.6000E+01
    -35.923  0.0000E+00  0.0000E+00  0.6000E+01  0.6000E+01
    -35.740  0.0000E+00  0.0000E+00  0.6000E+01  0.6000E+01
    -35.557  0.0000E+00  0.0000E+00  0.6000E+01  0.6000E+01
    -35.375  0.0000E+00  0.0000E+00  0.6000E+01  0.6000E+01
    -35.192  0.0000E+00  0.0000E+00  0.6000E+01  0.6000E+01
    -35.009  0.0000E+00  0.0000E+00  0.6000E+01  0.6000E+01
    -34.826  0.0000E+00  0.0000E+00  0.6000E+01  0.6000E+01
    -34.643  0.0000E+00  0.0000E+00  0.6000E+01  0.6000E+01
    -34.460  0.0000E+00  0.0000E+00  0.6000E+01  0.6000E+01
    -34.277  0.0000E+00  0.0000E+00  0.6000E+01  0.6000E+01
    -34.094  0.0000E+00  0.0000E+00  0.6000E+01  0.6000E+01
    -33.911  0.0000E+00  0.0000E+00  0.6000E+01  0.6000E+01
    -33.728  0.0000E+00  0.0000E+00  0.6000E+01  0.6000E+01
    -33.546  0.0000E+00  0.0000E+00  0.6000E+01  0.6000E+01
    -33.363  0.0000E+00  0.0000E+00  0.6000E+01  0.6000E+01
    -33.180  0.0000E+00  0.0000E+00  0.6000E+01  0.6000E+01
    -32.997  0.0000E+00  0.0000E+00  0.6000E+01  0.6000E+01
    -32.814  0.0000E+00  0.0000E+00  0.6000E+01  0.6000E+01
    -32.631  0.0000E+00  0.0000E+00  0.6000E+01  0.6000E+01
    -32.448  0.0000E+00  0.0000E+00  0.6000E+01  0.6000E+01
    -32.265  0.0000E+00  0.0000E+00  0.6000E+01  0.6000E+01
    -32.082  0.0000E+00  0.0000E+00  0.6000E+01  0.6000E+01
    -31.899  0.0000E+00  0.0000E+00  0.6000E+01  0.6000E+01
    -31.717  0.0000E+00  0.0000E+00  0.6000E+01  0.6000E+01
    -31.534  0.0000E+00  0.0000E+00  0.6000E+01  0.6000E+01
    -31.351  0.0000E+00  0.0000E+00  0.6000E+01  0.6000E+01
    -31.168  0.0000E+00  0.0000E+00  0.6000E+01  0.6000E+01
    -30.985  0.0000E+00  0.0000E+00  0.6000E+01  0.6000E+01
    -30.802  0.0000E+00  0.0000E+00  0.6000E+01  0.6000E+01
    -30.619  0.0000E+00  0.0000E+00  0.6000E+01  0.6000E+01
    -30.436  0.0000E+00  0.0000E+00  0.6000E+01  0.6000E+01
    -30.253  0.0000E+00  0.0000E+00  0.6000E+01  0.6000E+01
    -30.070  0.0000E+00  0.0000E+00  0.6000E+01  0.6000E+01
    -29.888  0.0000E+00  0.0000E+00  0.6000E+01  0.6000E+01
    -29.705  0.0000E+00  0.0000E+00  0.6000E+01  0.6000E+01
    -29.522  0.0000E+00  0.0000E+00  0.6000E+01  0.6000E+01
    -29.339  0.0000E+00  0.0000E+00  0.6000E+01  0.6000E+01
    -29.156  0.0000E+00  0.0000E+00  0.8000E+01  0.8000E+01
    -28.973  0.0000E+00  0.0000E+00  0.8000E+01  0.8000E+01
    -28.790  0.0000E+00  0.0000E+00  0.8000E+01  0.8000E+01
    -28.607  0.0000E+00  0.0000E+00  0.8000E+01  0.8000E+01
    -28.424  0.0000E+00  0.0000E+00  0.8000E+01  0.8000E+01
    -28.241  0.0000E+00  0.0000E+00  0.8000E+01  0.8000E+01
    -28.059  0.0000E+00  0.0000E+00  0.8000E+01  0.8000E+01
    -27.876  0.1093E+02  0.1093E+02  0.1000E+02  0.1000E+02
    -27.693  0.0000E+00  0.0000E+00  0.1000E+02  0.1000E+02
    -27.510  0.0000E+00  0.0000E+00  0.1000E+02  0.1000E+02
    -27.327  0.0000E+00  0.0000E+00  0.1000E+02  0.1000E+02
    -27.144  0.0000E+00  0.0000E+00  0.1000E+02  0.1000E+02
    -26.961  0.2236E-01  0.2236E-01  0.1000E+02  0.1000E+02
    -26.778  0.0000E+00  0.0000E+00  0.1200E+02  0.1200E+02
    -26.595  0.1093E+02  0.1093E+02  0.1400E+02  0.1400E+02
    -26.412  0.0000E+00  0.0000E+00  0.1400E+02  0.1400E+02
    -26.230  0.2168E+01  0.2168E+01  0.1440E+02  0.1440E+02
    -26.047  0.0000E+00  0.0000E+00  0.1800E+02  0.1800E+02
    -25.864  0.0000E+00  0.0000E+00  0.1800E+02  0.1800E+02
    -25.681  0.0000E+00  0.0000E+00  0.1800E+02  0.1800E+02
    -25.498  0.0000E+00  0.0000E+00  0.1800E+02  0.1800E+02
    -25.315  0.0000E+00  0.0000E+00  0.1800E+02  0.1800E+02
    -25.132  0.0000E+00  0.0000E+00  0.1800E+02  0.1800E+02
    -24.949  0.0000E+00  0.0000E+00  0.1800E+02  0.1800E+02
    -24.766  0.0000E+00  0.0000E+00  0.1800E+02  0.1800E+02
    -24.583  0.0000E+00  0.0000E+00  0.1800E+02  0.1800E+02
    -24.401  0.0000E+00  0.0000E+00  0.1800E+02  0.1800E+02
    -24.218  0.0000E+00  0.0000E+00  0.1800E+02  0.1800E+02
    -24.035  0.0000E+00  0.0000E+00  0.1800E+02  0.1800E+02
    -23.852  0.0000E+00  0.0000E+00  0.1800E+02  0.1800E+02
    -23.669  0.0000E+00  0.0000E+00  0.1800E+02  0.1800E+02
    -23.486  0.0000E+00  0.0000E+00  0.1800E+02  0.1800E+02
    -23.303  0.2973E-05  0.2973E-05  0.2000E+02  0.2000E+02
    -23.120  0.0000E+00  0.0000E+00  0.2200E+02  0.2200E+02
    -22.937  0.0000E+00  0.0000E+00  0.2200E+02  0.2200E+02
    -22.754  0.0000E+00  0.0000E+00  0.2200E+02  0.2200E+02
    -22.572  0.5217E-02  0.5217E-02  0.2200E+02  0.2200E+02
    -22.389  0.4748E+00  0.4748E+00  0.2609E+02  0.2609E+02
    -22.206  0.1093E+02  0.1093E+02  0.3000E+02  0.3000E+02
    -22.023  0.1151E+01  0.1151E+01  0.3021E+02  0.3021E+02
    -21.840  0.0000E+00  0.0000E+00  0.3200E+02  0.3200E+02
    -21.657  0.0000E+00  0.0000E+00  0.3200E+02  0.3200E+02
    -21.474  0.1093E+02  0.1093E+02  0.3400E+02  0.3400E+02
    -21.291  0.0000E+00  0.0000E+00  0.3400E+02  0.3400E+02
    -21.108  0.1702E-01  0.1702E-01  0.3400E+02  0.3400E+02
    -20.925  0.0000E+00  0.0000E+00  0.3600E+02  0.3600E+02
    -20.743  0.0000E+00  0.0000E+00  0.3800E+02  0.3800E+02
    -20.560  0.0000E+00  0.0000E+00  0.3800E+02  0.3800E+02
    -20.377  0.0000E+00  0.0000E+00  0.3800E+02  0.3800E+02
    -20.194  0.0000E+00  0.0000E+00  0.3800E+02  0.3800E+02
    -20.011  0.0000E+00  0.0000E+00  0.3800E+02  0.3800E+02
    -19.828  0.0000E+00  0.0000E+00  0.3800E+02  0.3800E+02
    -19.645  0.0000E+00  0.0000E+00  0.3800E+02  0.3800E+02
    -19.462  0.0000E+00  0.0000E+00  0.4000E+02  0.4000E+02
    -19.279  0.1093E+02  0.1093E+02  0.4200E+02  0.4200E+02
    -19.096  0.0000E+00  0.0000E+00  0.4200E+02  0.4200E+02
    -18.914  0.0000E+00  0.0000E+00  0.4200E+02  0.4200E+02
    -18.731  0.1093E+02  0.1093E+02  0.4400E+02  0.4400E+02
    -18.548  0.1223E-09  0.1223E-09  0.4400E+02  0.4400E+02
    -18.365  0.0000E+00  0.0000E+00  0.4600E+02  0.4600E+02
    -18.182  0.9915E+01  0.9915E+01  0.4781E+02  0.4781E+02
    -17.999  0.0000E+00  0.0000E+00  0.4800E+02  0.4800E+02
    -17.816  0.1023E+02  0.1023E+02  0.5187E+02  0.5187E+02
    -17.633  0.1093E+02  0.1093E+02  0.5400E+02  0.5400E+02
    -17.450  0.0000E+00  0.0000E+00  0.5600E+02  0.5600E+02
    -17.267  0.0000E+00  0.0000E+00  0.5800E+02  0.5800E+02
    -17.085  0.0000E+00  0.0000E+00  0.5800E+02  0.5800E+02
    -16.902  0.1062E+02  0.1062E+02  0.5994E+02  0.5994E+02
    -16.719  0.2538E-08  0.2538E-08  0.6000E+02  0.6000E+02
    -16.536  0.0000E+00  0.0000E+00  0.6200E+02  0.6200E+02
    -16.353  0.0000E+00  0.0000E+00  0.6200E+02  0.6200E+02
    -16.170  0.0000E+00  0.0000E+00  0.6200E+02  0.6200E+02
    -15.987  0.1129E-07  0.1129E-07  0.6200E+02  0.6200E+02
    -15.804  0.0000E+00  0.0000E+00  0.6400E+02  0.6400E+02
    -15.621  0.0000E+00  0.0000E+00  0.6600E+02  0.6600E+02
    -15.438  0.0000E+00  0.0000E+00  0.6600E+02  0.6600E+02
    -15.256  0.1455E+02  0.1455E+02  0.6866E+02  0.6866E+02
    -15.073  0.0000E+00  0.0000E+00  0.7000E+02  0.7000E+02
    -14.890  0.0000E+00  0.0000E+00  0.7000E+02  0.7000E+02
    -14.707  0.1093E+02  0.1093E+02  0.7600E+02  0.7600E+02
    -14.524  0.0000E+00  0.0000E+00  0.7600E+02  0.7600E+02
    -14.341  0.1093E+02  0.1093E+02  0.7800E+02  0.7800E+02
    -14.158  0.2825E+01  0.2824E+01  0.7852E+02  0.7852E+02
    -13.975  0.2176E+02  0.2176E+02  0.8598E+02  0.8598E+02
    -13.792  0.1093E+02  0.1093E+02  0.9000E+02  0.9000E+02
    -13.609  0.6070E-15  0.6070E-15  0.9000E+02  0.9000E+02
    -13.427  0.3036E-10  0.3036E-10  0.9200E+02  0.9200E+02
    -13.244  0.5060E+00  0.5060E+00  0.9609E+02  0.9609E+02
    -13.061  0.0000E+00  0.0000E+00  0.1000E+03  0.1000E+03
    -12.878  0.1093E+02  0.1093E+02  0.1040E+03  0.1040E+03
    -12.695  0.2046E+02  0.2046E+02  0.1077E+03  0.1077E+03
    -12.512  0.1093E+02  0.1093E+02  0.1100E+03  0.1100E+03
    -12.329  0.1093E+02  0.1093E+02  0.1120E+03  0.1120E+03
    -12.146  0.3878E-01  0.3878E-01  0.1160E+03  0.1160E+03
    -11.963  0.0000E+00  0.0000E+00  0.1200E+03  0.1200E+03
    -11.780  0.0000E+00  0.0000E+00  0.1200E+03  0.1200E+03
    -11.598  0.2183E+01  0.2183E+01  0.1204E+03  0.1204E+03
    -11.415  0.0000E+00  0.0000E+00  0.1240E+03  0.1240E+03
    -11.232  0.1093E+02  0.1093E+02  0.1260E+03  0.1260E+03
    -11.049  0.0000E+00  0.0000E+00  0.1300E+03  0.1300E+03
    -10.866  0.9839E-11  0.9838E-11  0.1300E+03  0.1300E+03
    -10.683  0.2179E+02  0.2179E+02  0.1360E+03  0.1360E+03
    -10.500  0.3642E-14  0.3642E-14  0.1380E+03  0.1380E+03
    -10.317  0.0000E+00  0.0000E+00  0.1400E+03  0.1400E+03
    -10.134  0.0000E+00  0.0000E+00  0.1400E+03  0.1400E+03
     -9.951  0.1663E+02  0.1663E+02  0.1450E+03  0.1450E+03
     -9.769  0.2191E+02  0.2191E+02  0.1500E+03  0.1500E+03
     -9.586  0.0000E+00  0.0000E+00  0.1520E+03  0.1520E+03
     -9.403  0.1640E-02  0.1640E-02  0.1520E+03  0.1520E+03
     -9.220  0.0000E+00  0.0000E+00  0.1540E+03  0.1540E+03
     -9.037  0.5225E-05  0.5225E-05  0.1540E+03  0.1540E+03
     -8.854  0.0000E+00  0.0000E+00  0.1560E+03  0.1560E+03
     -8.671  0.1093E+02  0.1093E+02  0.1580E+03  0.1580E+03
     -8.488  0.7764E-12  0.7764E-12  0.1580E+03  0.1580E+03
     -8.305  0.0000E+00  0.0000E+00  0.1600E+03  0.1600E+03
     -8.122  0.0000E+00  0.0000E+00  0.1600E+03  0.1600E+03
     -7.939  0.0000E+00  0.0000E+00  0.1600E+03  0.1600E+03
     -7.757  0.0000E+00  0.0000E+00  0.1600E+03  0.1600E+03
     -7.574  0.0000E+00  0.0000E+00  0.1600E+03  0.1600E+03
     -7.391  0.0000E+00  0.0000E+00  0.1620E+03  0.1620E+03
     -7.208  0.1091E+02  0.1091E+02  0.1660E+03  0.1660E+03
     -7.025  0.0000E+00  0.0000E+00  0.1660E+03  0.1660E+03
     -6.842  0.0000E+00  0.0000E+00  0.1660E+03  0.1660E+03
     -6.659  0.0000E+00  0.0000E+00  0.1660E+03  0.1660E+03
     -6.476  0.0000E+00  0.0000E+00  0.1660E+03  0.1660E+03
     -6.293  0.0000E+00  0.0000E+00  0.1660E+03  0.1660E+03
     -6.110  0.0000E+00  0.0000E+00  0.1660E+03  0.1660E+03
     -5.928  0.0000E+00  0.0000E+00  0.1660E+03  0.1660E+03
     -5.745  0.0000E+00  0.0000E+00  0.1660E+03  0.1660E+03
     -5.562  0.1093E+02  0.1093E+02  0.1680E+03  0.1680E+03
     -5.379  0.9356E-01  0.9356E-01  0.1680E+03  0.1680E+03
     -5.196  0.0000E+00  0.0000E+00  0.1700E+03  0.1700E+03
     -5.013  0.8880E+01  0.8880E+01  0.1716E+03  0.1716E+03
     -4.830  0.0000E+00  0.0000E+00  0.1720E+03  0.1720E+03
     -4.647  0.0000E+00  0.0000E+00  0.1720E+03  0.1720E+03
     -4.464  0.0000E+00  0.0000E+00  0.1720E+03  0.1720E+03
     -4.281  0.1093E+02  0.1093E+02  0.1740E+03  0.1740E+03
     -4.099  0.1076E+02  0.1076E+02  0.1780E+03  0.1780E+03
     -3.916  0.1087E+02  0.1087E+02  0.1820E+03  0.1820E+03
     -3.733  0.0000E+00  0.0000E+00  0.1820E+03  0.1820E+03
     -3.550  0.0000E+00  0.0000E+00  0.1820E+03  0.1820E+03
     -3.367  0.1101E-02  0.1101E-02  0.1840E+03  0.1840E+03
     -3.184  0.1093E+02  0.1093E+02  0.1880E+03  0.1880E+03
     -3.001  0.1359E-10  0.1358E-10  0.1880E+03  0.1880E+03
     -2.818  0.1201E-09  0.1201E-09  0.1900E+03  0.1900E+03
     -2.635  0.0000E+00  0.0000E+00  0.1920E+03  0.1920E+03
     -2.452  0.0000E+00  0.0000E+00  0.1920E+03  0.1920E+03
     -2.270  0.0000E+00  0.0000E+00  0.1920E+03  0.1920E+03
     -2.087  0.1264E-09  0.1265E-09  0.1920E+03  0.1920E+03
     -1.904  0.0000E+00  0.0000E+00  0.1940E+03  0.1940E+03
     -1.721  0.1086E+02  0.1086E+02  0.1960E+03  0.1960E+03
     -1.538  0.0000E+00  0.0000E+00  0.1980E+03  0.1980E+03
     -1.355  0.1093E+02  0.1093E+02  0.2000E+03  0.2000E+03
     -1.172  0.1406E+02  0.1406E+02  0.2026E+03  0.2026E+03
     -0.989  0.1093E+02  0.1093E+02  0.2080E+03  0.2080E+03
     -0.806  0.1933E-09  0.1945E-09  0.2100E+03  0.2100E+03
     -0.623  0.1798E+02  0.1798E+02  0.2153E+03  0.2153E+03
     -0.441  0.1060E+02  0.1060E+02  0.2199E+03  0.2199E+03
     -0.258  0.1489E+01  0.1493E+01  0.2243E+03  0.2243E+03
     -0.075  0.3183E-08  0.3199E-08  0.2280E+03  0.2280E+03
      0.108  0.1207E+02  0.1207E+02  0.2342E+03  0.2342E+03
      0.291  0.1094E+02  0.1094E+02  0.2400E+03  0.2400E+03
      0.474  0.1991E+02  0.1992E+02  0.2476E+03  0.2476E+03
      0.657  0.2187E+02  0.2187E+02  0.2540E+03  0.2540E+03
      0.840  0.0000E+00  0.0000E+00  0.2560E+03  0.2560E+03
      1.023  0.0000E+00  0.0000E+00  0.2560E+03  0.2560E+03
      1.206  0.0000E+00  0.0000E+00  0.2560E+03  0.2560E+03
      1.388  0.0000E+00  0.0000E+00  0.2560E+03  0.2560E+03
      1.571  0.0000E+00  0.0000E+00  0.2560E+03  0.2560E+03
      1.754  0.0000E+00  0.0000E+00  0.2560E+03  0.2560E+03
      1.937  0.0000E+00  0.0000E+00  0.2560E+03  0.2560E+03
      2.120  0.0000E+00  0.0000E+00  0.2560E+03  0.2560E+03
      2.303  0.0000E+00  0.0000E+00  0.2560E+03  0.2560E+03
      2.486  0.0000E+00  0.0000E+00  0.2560E+03  0.2560E+03
      2.669  0.0000E+00  0.0000E+00  0.2560E+03  0.2560E+03
      2.852  0.0000E+00  0.0000E+00  0.2560E+03  0.2560E+03
      3.035  0.0000E+00  0.0000E+00  0.2560E+03  0.2560E+03
      3.217  0.0000E+00  0.0000E+00  0.2560E+03  0.2560E+03
