   55   55    1    2
  0.1454545E+03  0.2000000E-08  0.2000000E-08  0.2000000E-08  0.5000000E-15
  1.000000000000000E-004
  CAR 
 c2_oh2_ruthenium_mol                    
    166      1    128
 
  0.0000000E+00  0.0000000E+00  0.0000000E+00  0.1000000E+01
    1      -49.158569    -49.158569
    2      -49.078510    -49.078511
    3      -48.787980    -48.787979
    4      -29.237001    -29.237001
    5      -27.935145    -27.935145
    6      -26.940824    -26.940824
    7      -26.640188    -26.640188
    8      -26.223532    -26.223532
    9      -26.157256    -26.157256
   10      -23.423034    -23.423034
   11      -23.267694    -23.267694
   12      -22.548160    -22.548160
   13      -22.477811    -22.477811
   14      -22.376512    -22.376512
   15      -22.252208    -22.252208
   16      -22.013964    -22.013964
   17      -21.531777    -21.531777
   18      -21.087414    -21.087414
   19      -20.848528    -20.848528
   20      -19.566812    -19.566812
   21      -19.333864    -19.333864
   22      -18.786180    -18.786180
   23      -18.500411    -18.500411
   24      -18.191255    -18.191255
   25      -17.920354    -17.920354
   26      -17.826830    -17.826830
   27      -17.660032    -17.660032
   28      -17.602295    -17.602295
   29      -17.357525    -17.357525
   30      -16.915052    -16.915052
   31      -16.674653    -16.674653
   32      -15.944736    -15.944736
   33      -15.723307    -15.723307
   34      -15.303505    -15.303505
   35      -15.252405    -15.252405
   36      -14.820042    -14.820042
   37      -14.809940    -14.809940
   38      -14.754158    -14.754159
   39      -14.381039    -14.381039
   40      -14.153522    -14.153522
   41      -14.091721    -14.091721
   42      -14.010088    -14.010088
   43      -13.990607    -13.990607
   44      -13.956757    -13.956758
   45      -13.845662    -13.845662
   46      -13.550750    -13.550750
   47      -13.377782    -13.377782
   48      -13.328781    -13.328781
   49      -13.231712    -13.231712
   50      -13.211991    -13.211991
   51      -12.973209    -12.973209
   52      -12.946946    -12.946946
   53      -12.746781    -12.746781
   54      -12.702905    -12.702905
   55      -12.579691    -12.579691
   56      -12.381914    -12.381914
   57      -12.284639    -12.284639
   58      -12.244469    -12.244469
   59      -12.127167    -12.127167
   60      -12.057120    -12.057120
   61      -11.591544    -11.591544
   62      -11.498569    -11.498569
   63      -11.309144    -11.309144
   64      -11.196180    -11.196180
   65      -11.133414    -11.133414
   66      -10.816058    -10.816058
   67      -10.728408    -10.728408
   68      -10.700354    -10.700354
   69      -10.651868    -10.651868
   70      -10.442966    -10.442966
   71      -10.033319    -10.033319
   72       -9.986547     -9.986547
   73       -9.951763     -9.951763
   74       -9.825635     -9.825635
   75       -9.791342     -9.791342
   76       -9.749748     -9.749748
   77       -9.377137     -9.377137
   78       -9.002248     -9.002248
   79       -8.701595     -8.701595
   80       -8.435913     -8.435913
   81       -7.507743     -7.507743
   82       -7.322922     -7.322922
   83       -7.228139     -7.228139
   84       -5.585259     -5.585259
   85       -5.362036     -5.362035
   86       -5.019356     -5.019356
   87       -4.340609     -4.340609
   88       -4.198184     -4.198184
   89       -4.113838     -4.113838
   90       -4.005682     -4.005682
   91       -3.933409     -3.933409
   92       -3.480187     -3.480187
   93       -3.340707     -3.340707
   94       -3.238424     -3.238424
   95       -2.951665     -2.951664
   96       -2.770969     -2.770969
   97       -2.039421     -2.039422
   98       -1.738222     -1.738227
   99       -1.652732     -1.652736
  100       -1.388627     -1.388631
  101       -1.215072     -1.215074
  102       -1.168184     -1.168192
  103       -1.106456     -1.106469
  104       -1.021879     -1.021887
  105       -0.940077     -0.940083
  106       -0.759561     -0.759568
  107       -0.661469     -0.661477
  108       -0.626101     -0.626108
  109       -0.547013     -0.547022
  110       -0.453801     -0.453815
  111       -0.401930     -0.401937
  112       -0.342218     -0.342232
  113       -0.249925     -0.249936
  114       -0.167144     -0.167162
  115       -0.030980     -0.030986
  116        0.001205      0.001187
  117        0.073844      0.073838
  118        0.117035      0.117026
  119        0.208123      0.208110
  120        0.256835      0.256822
  121        0.314749      0.314736
  122        0.372533      0.372522
  123        0.431814      0.431800
  124        0.467423      0.467405
  125        0.547450      0.547437
  126        0.595534      0.595521
  127        0.627438      0.627377
  128        0.723323      0.718166
