       N       E                     dE             d eps       ncg     rms          rms(c)
DAV:   1     0.908797460452E+03    0.90880E+03   -0.58820E+04   768   0.974E+02
DAV:   2    -0.682591378375E+02   -0.97706E+03   -0.97061E+03  1024   0.160E+02
DAV:   3    -0.392366025502E+03   -0.32411E+03   -0.32367E+03   832   0.848E+01
DAV:   4    -0.411514111984E+03   -0.19148E+02   -0.19121E+02   704   0.258E+01
DAV:   5    -0.411761948997E+03   -0.24784E+00   -0.24776E+00   832   0.310E+00    0.576E+01
DAV:   6    -0.393728969242E+03    0.18033E+02   -0.38807E+02   512   0.234E+01    0.391E+01
DAV:   7    -0.382870867505E+03    0.10858E+02   -0.23334E+01   768   0.211E+01    0.238E+01
DAV:   8    -0.378491121927E+03    0.43797E+01   -0.17208E+01   768   0.103E+01    0.972E+00
DAV:   9    -0.377289482161E+03    0.12016E+01   -0.48063E+00   768   0.481E+00    0.369E+00
DAV:  10    -0.377238215659E+03    0.51267E-01   -0.45280E-01   768   0.163E+00    0.257E+00
DAV:  11    -0.377098554712E+03    0.13966E+00   -0.16555E-01   768   0.992E-01    0.103E+00
DAV:  12    -0.377032852047E+03    0.65703E-01   -0.60621E-02   768   0.621E-01    0.657E-01
DAV:  13    -0.377013976984E+03    0.18875E-01   -0.14886E-02   768   0.339E-01    0.487E-01
DAV:  14    -0.377001289498E+03    0.12687E-01   -0.14513E-02   768   0.319E-01    0.318E-01
DAV:  15    -0.377000341042E+03    0.94846E-03   -0.55821E-03   768   0.213E-01    0.274E-01
DAV:  16    -0.377005410359E+03   -0.50693E-02   -0.13782E-03   768   0.117E-01    0.180E-01
DAV:  17    -0.377014318476E+03   -0.89081E-02   -0.20354E-03   768   0.133E-01    0.890E-02
DAV:  18    -0.377019286813E+03   -0.49683E-02   -0.67384E-04   768   0.758E-02    0.720E-02
DAV:  19    -0.377023566524E+03   -0.42797E-02   -0.26453E-04   640   0.519E-02    0.478E-02
DAV:  20    -0.377026429431E+03   -0.28629E-02   -0.17398E-04   768   0.380E-02    0.287E-02
DAV:  21    -0.377028249956E+03   -0.18205E-02   -0.65942E-05   640   0.237E-02    0.187E-02
DAV:  22    -0.377029766018E+03   -0.15161E-02   -0.47598E-05   768   0.181E-02    0.105E-02
DAV:  23    -0.377030433451E+03   -0.66743E-03   -0.15498E-05   640   0.963E-03    0.808E-03
DAV:  24    -0.377030931797E+03   -0.49835E-03   -0.11003E-05   640   0.702E-03    0.449E-03
DAV:  25    -0.377031188309E+03   -0.25651E-03   -0.52471E-06   640   0.458E-03    0.228E-03
DAV:  26    -0.377031338483E+03   -0.15017E-03   -0.23352E-06   640   0.297E-03    0.159E-03
DAV:  27    -0.377031427650E+03   -0.89166E-04   -0.14819E-06   640   0.219E-03    0.115E-03
DAV:  28    -0.377031473198E+03   -0.45549E-04   -0.56767E-07   640   0.143E-03    0.632E-04
DAV:  29    -0.377031494833E+03   -0.21634E-04   -0.17367E-07   640   0.924E-04    0.433E-04
DAV:  30    -0.377031504809E+03   -0.99764E-05    0.19243E-08   640   0.541E-04
   1 F= -.37703150E+03 E0= -.37703150E+03  d E =-.712195E-21  mag=     0.0000
