 vasp.5.3.5 31Mar14 (build Apr 08 2014 12:00:03) complex                        
  
 VASP binary ID code NSC-NSCPATCH-BUILD02 date 2017.03.15  18:38:26
 running on   64 total cores
 distrk:  each k-point on   64 cores,    1 groups
 distr:  one band on NCORES_PER_BAND=   1 cores,   64 groups


--------------------------------------------------------------------------------------------------------


 INCAR:
 POTCAR:    PAW_PBE C_h 06Feb2004                 
 POTCAR:    PAW_PBE C_h 06Feb2004                 
 POTCAR:    PAW_PBE H 15Jun2001                   
 POTCAR:    PAW_PBE N_h 06Feb2004                 
 POTCAR:    PAW_PBE O_h 06Feb2004                 
 POTCAR:    PAW_PBE Ru_pv 28Jan2005               

 ----------------------------------------------------------------------------- 
|                                                                             |
|           W    W    AA    RRRRR   N    N  II  N    N   GGGG   !!!           |
|           W    W   A  A   R    R  NN   N  II  NN   N  G    G  !!!           |
|           W    W  A    A  R    R  N N  N  II  N N  N  G       !!!           |
|           W WW W  AAAAAA  RRRRR   N  N N  II  N  N N  G  GGG   !            |
|           WW  WW  A    A  R   R   N   NN  II  N   NN  G    G                |
|           W    W  A    A  R    R  N    N  II  N    N   GGGG   !!!           |
|                                                                             |
|      For optimal performance we recommend to set                            |
|        NCORE= 4 - approx SQRT( number of cores)                             |
|      NCORE specifies how many cores store one orbital (NPAR=cpu/NCORE).     |
|      This setting can  greatly improve the performance of VASP for DFT.     |
|      The default, NPAR=number of cores might be grossly inefficient         |
|      on modern multi-core architectures or massively parallel machines.     |
|      Do your own testing !!!!                                               |
|      Unfortunately you need to use the default for GW and RPA calculations. |
|      (for HF NCORE is supported but not extensively tested yet)             |
|                                                                             |
 ----------------------------------------------------------------------------- 

 POTCAR:    PAW_PBE C_h 06Feb2004                 
   VRHFIN =C: s2p2                                                              
   LEXCH  = PE                                                                  
   EATOM  =   147.1560 eV,   10.8157 Ry                                         
                                                                                
   TITEL  = PAW_PBE C_h 06Feb2004                                               
   LULTRA =        F    use ultrasoft PP ?                                      
   IUNSCR =        1    unscreen: 0-lin 1-nonlin 2-no                           
   RPACOR =    0.800    partial core radius                                     
   POMASS =   12.011; ZVAL   =    4.000    mass and valenz                      
   RCORE  =    1.100    outmost cutoff radius                                   
   RWIGS  =    1.630; RWIGS  =    0.863    wigner-seitz radius (au A)           
   ENMAX  =  700.000; ENMIN  =  500.000 eV                                      
   ICORE  =        2    local potential                                         
   LCOR   =        T    correct aug charges                                     
   LPAW   =        T    paw PP                                                  
   EAUG   =  946.768                                                            
   DEXC   =    0.000                                                            
   RMAX   =    1.128    core radius for proj-oper                               
   RAUG   =    1.300    factor for augmentation sphere                          
   RDEP   =    1.162    radius for radial grids                                 
   RDEPT  =    1.088    core radius for aug-charge                              
                                                                                
   Atomic configuration                                                         
    4 entries                                                                   
     n  l   j            E        occ.                                          
     1  0  0.50      -273.3789   2.0000                                         
     2  0  0.50       -13.7508   2.0000                                         
     2  1  0.50        -5.2854   2.0000                                         
     3  2  1.50        -5.4423   0.0000                                         
   Description                                                                  
     l       E           TYP  RCUT    TYP  RCUT                                 
     0    -13.7508458     23  1.100                                             
     0     -8.2022199     23  1.100                                             
     1     -5.2854383     23  1.100                                             
     1      1.1560700     23  1.100                                             
     2     -5.4423304      7  1.100                                             
  local pseudopotential read in
  partial core-charges read in
  partial kinetic energy density read in
  atomic valenz-charges read in
  non local Contribution for L=           0  read in
    real space projection operators read in
  non local Contribution for L=           0  read in
    real space projection operators read in
  non local Contribution for L=           1  read in
    real space projection operators read in
  non local Contribution for L=           1  read in
    real space projection operators read in
    PAW grid and wavefunctions read in
 
   number of l-projection  operators is LMAX  =           4
   number of lm-projection operators is LMMAX =           8
 
 POTCAR:    PAW_PBE C_h 06Feb2004                 
   VRHFIN =C: s2p2                                                              
   LEXCH  = PE                                                                  
   EATOM  =   147.1560 eV,   10.8157 Ry                                         
                                                                                
   TITEL  = PAW_PBE C_h 06Feb2004                                               
   LULTRA =        F    use ultrasoft PP ?                                      
   IUNSCR =        1    unscreen: 0-lin 1-nonlin 2-no                           
   RPACOR =    0.800    partial core radius                                     
   POMASS =   12.011; ZVAL   =    4.000    mass and valenz                      
   RCORE  =    1.100    outmost cutoff radius                                   
   RWIGS  =    1.630; RWIGS  =    0.863    wigner-seitz radius (au A)           
   ENMAX  =  700.000; ENMIN  =  500.000 eV                                      
   ICORE  =        2    local potential                                         
   LCOR   =        T    correct aug charges                                     
   LPAW   =        T    paw PP                                                  
   EAUG   =  946.768                                                            
   DEXC   =    0.000                                                            
   RMAX   =    1.128    core radius for proj-oper                               
   RAUG   =    1.300    factor for augmentation sphere                          
   RDEP   =    1.162    radius for radial grids                                 
   RDEPT  =    1.088    core radius for aug-charge                              
                                                                                
   Atomic configuration                                                         
    4 entries                                                                   
     n  l   j            E        occ.                                          
     1  0  0.50      -273.3789   2.0000                                         
     2  0  0.50       -13.7508   2.0000                                         
     2  1  0.50        -5.2854   2.0000                                         
     3  2  1.50        -5.4423   0.0000                                         
   Description                                                                  
     l       E           TYP  RCUT    TYP  RCUT                                 
     0    -13.7508458     23  1.100                                             
     0     -8.2022199     23  1.100                                             
     1     -5.2854383     23  1.100                                             
     1      1.1560700     23  1.100                                             
     2     -5.4423304      7  1.100                                             
  local pseudopotential read in
  partial core-charges read in
  partial kinetic energy density read in
  atomic valenz-charges read in
  non local Contribution for L=           0  read in
    real space projection operators read in
  non local Contribution for L=           0  read in
    real space projection operators read in
  non local Contribution for L=           1  read in
    real space projection operators read in
  non local Contribution for L=           1  read in
    real space projection operators read in
    PAW grid and wavefunctions read in
 
   number of l-projection  operators is LMAX  =           4
   number of lm-projection operators is LMMAX =           8
 
 POTCAR:    PAW_PBE H 15Jun2001                   
   VRHFIN =H: ultrasoft test                                                    
   LEXCH  = PE                                                                  
   EATOM  =    12.4884 eV,    0.9179 Ry                                         
                                                                                
   TITEL  = PAW_PBE H 15Jun2001                                                 
   LULTRA =        F    use ultrasoft PP ?                                      
   IUNSCR =        0    unscreen: 0-lin 1-nonlin 2-no                           
   RPACOR =    0.000    partial core radius                                     
   POMASS =    1.000; ZVAL   =    1.000    mass and valenz                      
   RCORE  =    1.100    outmost cutoff radius                                   
   RWIGS  =    0.700; RWIGS  =    0.370    wigner-seitz radius (au A)           
   ENMAX  =  250.000; ENMIN  =  200.000 eV                                      
   RCLOC  =    0.701    cutoff for local pot                                    
   LCOR   =        T    correct aug charges                                     
   LPAW   =        T    paw PP                                                  
   EAUG   =  400.000                                                            
   RMAX   =    1.123    core radius for proj-oper                               
   RAUG   =    1.200    factor for augmentation sphere                          
   RDEP   =    1.112    radius for radial grids                                 
   RDEPT  =    0.926    core radius for aug-charge                              
                                                                                
   Atomic configuration                                                         
    2 entries                                                                   
     n  l   j            E        occ.                                          
     1  0  0.50        -6.4927   1.0000                                         
     2  1  0.50        -3.4015   0.0000                                         
   Description                                                                  
     l       E           TYP  RCUT    TYP  RCUT                                 
     0     -6.4927494     23  1.100                                             
     0      6.8029130     23  1.100                                             
     1     -4.0817478     23  1.100                                             
  local pseudopotential read in
  atomic valenz-charges read in
  non local Contribution for L=           0  read in
    real space projection operators read in
  non local Contribution for L=           0  read in
    real space projection operators read in
  non local Contribution for L=           1  read in
    real space projection operators read in
    PAW grid and wavefunctions read in
 
   number of l-projection  operators is LMAX  =           3
   number of lm-projection operators is LMMAX =           5
 
 POTCAR:    PAW_PBE N_h 06Feb2004                 
   VRHFIN =N: s2p3                                                              
   LEXCH  = PE                                                                  
   EATOM  =   264.5486 eV,   19.4438 Ry                                         
                                                                                
   TITEL  = PAW_PBE N_h 06Feb2004                                               
   LULTRA =        F    use ultrasoft PP ?                                      
   IUNSCR =        1    unscreen: 0-lin 1-nonlin 2-no                           
   RPACOR =    0.800    partial core radius                                     
   POMASS =   14.001; ZVAL   =    5.000    mass and valenz                      
   RCORE  =    1.100    outmost cutoff radius                                   
   RWIGS  =    1.480; RWIGS  =    0.783    wigner-seitz radius (au A)           
   ENMAX  =  700.000; ENMIN  =  500.000 eV                                      
   ICORE  =        2    local potential                                         
   LCOR   =        T    correct aug charges                                     
   LPAW   =        T    paw PP                                                  
   EAUG   =  904.640                                                            
   DEXC   =    0.000                                                            
   RMAX   =    1.127    core radius for proj-oper                               
   RAUG   =    1.300    factor for augmentation sphere                          
   RDEP   =    1.115    radius for radial grids                                 
   RDEPT  =    1.106    core radius for aug-charge                              
                                                                                
   Atomic configuration                                                         
    4 entries                                                                   
     n  l   j            E        occ.                                          
     1  0  0.50      -384.7179   2.0000                                         
     2  0  0.50       -18.5828   2.0000                                         
     2  1  0.50        -7.0898   3.0000                                         
     3  2  1.50        -6.8029   0.0000                                         
   Description                                                                  
     l       E           TYP  RCUT    TYP  RCUT                                 
     0    -18.5828117     23  1.100                                             
     0    -15.0750597     23  1.100                                             
     1     -7.0897851     23  1.100                                             
     1     -1.9663412     23  1.100                                             
     2     -6.8029130      7  1.100                                             
  local pseudopotential read in
  partial core-charges read in
  partial kinetic energy density read in
  kinetic energy density of atom read in
  atomic valenz-charges read in
  non local Contribution for L=           0  read in
    real space projection operators read in
  non local Contribution for L=           0  read in
    real space projection operators read in
  non local Contribution for L=           1  read in
    real space projection operators read in
  non local Contribution for L=           1  read in
    real space projection operators read in
    PAW grid and wavefunctions read in
 
   number of l-projection  operators is LMAX  =           4
   number of lm-projection operators is LMMAX =           8
 
 POTCAR:    PAW_PBE O_h 06Feb2004                 
   VRHFIN =O: s2p4                                                              
   LEXCH  = PE                                                                  
   EATOM  =   432.3788 eV,   31.7789 Ry                                         
                                                                                
   TITEL  = PAW_PBE O_h 06Feb2004                                               
   LULTRA =        F    use ultrasoft PP ?                                      
   IUNSCR =        1    unscreen: 0-lin 1-nonlin 2-no                           
   RPACOR =    0.800    partial core radius                                     
   POMASS =   16.000; ZVAL   =    6.000    mass and valenz                      
   RCORE  =    1.100    outmost cutoff radius                                   
   RWIGS  =    1.400; RWIGS  =    0.741    wigner-seitz radius (au A)           
   ENMAX  =  700.000; ENMIN  =  500.000 eV                                      
   ICORE  =        2    local potential                                         
   LCOR   =        T    correct aug charges                                     
   LPAW   =        T    paw PP                                                  
   EAUG   =  888.804                                                            
   DEXC   =    0.000                                                            
   RMAX   =    1.128    core radius for proj-oper                               
   RAUG   =    1.300    factor for augmentation sphere                          
   RDEP   =    1.125    radius for radial grids                                 
   RDEPT  =    1.088    core radius for aug-charge                              
                                                                                
   Atomic configuration                                                         
    4 entries                                                                   
     n  l   j            E        occ.                                          
     1  0  0.50      -514.6923   2.0000                                         
     2  0  0.50       -23.9615   2.0000                                         
     2  1  0.50        -9.0305   4.0000                                         
     3  2  1.50        -9.5241   0.0000                                         
   Description                                                                  
     l       E           TYP  RCUT    TYP  RCUT                                 
     0    -23.9615319     23  1.100                                             
     0    -25.3221145     23  1.100                                             
     1     -9.0304911     23  1.100                                             
     1     -5.4802209     23  1.100                                             
     2     -9.5240782      7  1.100                                             
  local pseudopotential read in
  partial core-charges read in
  partial kinetic energy density read in
  atomic valenz-charges read in
  non local Contribution for L=           0  read in
    real space projection operators read in
  non local Contribution for L=           0  read in
    real space projection operators read in
  non local Contribution for L=           1  read in
    real space projection operators read in
  non local Contribution for L=           1  read in
    real space projection operators read in
    PAW grid and wavefunctions read in
 
   number of l-projection  operators is LMAX  =           4
   number of lm-projection operators is LMMAX =           8
 
 POTCAR:    PAW_PBE Ru_pv 28Jan2005               
   VRHFIN =Ru: 4p5s4d                                                           
   LEXCH  = PE                                                                  
   EATOM  =  1873.4746 eV,  137.6965 Ry                                         
                                                                                
   TITEL  = PAW_PBE Ru_pv 28Jan2005                                             
   LULTRA =        F    use ultrasoft PP ?                                      
   IUNSCR =        1    unscreen: 0-lin 1-nonlin 2-no                           
   RPACOR =    2.170    partial core radius                                     
   POMASS =  101.070; ZVAL   =   14.000    mass and valenz                      
   RCORE  =    2.500    outmost cutoff radius                                   
   RWIGS  =    2.650; RWIGS  =    1.402    wigner-seitz radius (au A)           
   ENMAX  =  240.049; ENMIN  =  180.037 eV                                      
   ICORE  =        3    local potential                                         
   LCOR   =        T    correct aug charges                                     
   LPAW   =        T    paw PP                                                  
   EAUG   =  430.792                                                            
   DEXC   =    0.000                                                            
   RMAX   =    2.546    core radius for proj-oper                               
   RAUG   =    1.300    factor for augmentation sphere                          
   RDEP   =    2.520    radius for radial grids                                 
   RDEPT  =    2.044    core radius for aug-charge                              
                                                                                
   Atomic configuration                                                         
   11 entries                                                                   
     n  l   j            E        occ.                                          
     1  0  0.50    -21933.2692   2.0000                                         
     2  0  0.50     -3153.4096   2.0000                                         
     2  1  1.50     -2823.9548   6.0000                                         
     3  0  0.50      -555.3322   2.0000                                         
     3  1  1.50      -447.1024   6.0000                                         
     3  2  2.50      -273.0570  10.0000                                         
     4  0  0.50       -76.3589   2.0000                                         
     4  1  1.50       -46.4050   6.0000                                         
     4  2  2.50        -5.2029   7.0000                                         
     5  0  0.50        -4.2392   1.0000                                         
     4  3  2.50        -1.3606   0.0000                                         
   Description                                                                  
     l       E           TYP  RCUT    TYP  RCUT                                 
     1    -46.4050190     23  2.100                                             
     1      4.0817478     23  2.100                                             
     2     -5.2028758     23  2.500                                             
     2     -6.5634584     23  2.500                                             
     0     -4.2392192     23  2.500                                             
     0      7.0918828     23  2.500                                             
     3     -5.4423304     23  2.500                                             
  local pseudopotential read in
  partial core-charges read in
  partial kinetic energy density read in
  atomic valenz-charges read in
  non local Contribution for L=           1  read in
    real space projection operators read in
  non local Contribution for L=           1  read in
    real space projection operators read in
  non local Contribution for L=           2  read in
    real space projection operators read in
  non local Contribution for L=           2  read in
    real space projection operators read in
  non local Contribution for L=           0  read in
    real space projection operators read in
  non local Contribution for L=           0  read in
    real space projection operators read in
    PAW grid and wavefunctions read in
 
   number of l-projection  operators is LMAX  =           6
   number of lm-projection operators is LMMAX =          18
 
 Optimization of the real space projectors (new method)

 maximal supplied QI-value         = 34.20
 optimisation between [QCUT,QGAM] = [ 13.34, 27.02] = [ 49.83,204.46] Ry 
 Optimized for a Real-space Cutoff    1.04 Angstroem

   l    n(q)    QCUT    max X(q) W(low)/X(q) W(high)/X(q)  e(spline) 
   0      8    13.340   134.812    0.72E-04    0.21E-03    0.27E-06
   0      8    13.340    80.524    0.70E-04    0.21E-03    0.27E-06
   1      8    13.340    79.026    0.21E-03    0.16E-03    0.33E-06
   1      8    13.340    45.188    0.20E-03    0.15E-03    0.33E-06
 Optimization of the real space projectors (new method)

 maximal supplied QI-value         = 34.20
 optimisation between [QCUT,QGAM] = [ 13.34, 27.02] = [ 49.83,204.46] Ry 
 Optimized for a Real-space Cutoff    1.04 Angstroem

   l    n(q)    QCUT    max X(q) W(low)/X(q) W(high)/X(q)  e(spline) 
   0      8    13.340   134.812    0.72E-04    0.21E-03    0.27E-06
   0      8    13.340    80.524    0.70E-04    0.21E-03    0.27E-06
   1      8    13.340    79.026    0.21E-03    0.16E-03    0.33E-06
   1      8    13.340    45.188    0.20E-03    0.15E-03    0.33E-06
 Optimization of the real space projectors (new method)

 maximal supplied QI-value         = 34.20
 optimisation between [QCUT,QGAM] = [ 13.34, 27.02] = [ 49.83,204.46] Ry 
 Optimized for a Real-space Cutoff    0.98 Angstroem

   l    n(q)    QCUT    max X(q) W(low)/X(q) W(high)/X(q)  e(spline) 
   0      8    13.340    19.460    0.18E-03    0.41E-04    0.19E-06
   0      8    13.340    12.209    0.17E-03    0.45E-04    0.18E-06
   1      7    13.340     4.655    0.16E-03    0.30E-03    0.14E-06
 Optimization of the real space projectors (new method)

 maximal supplied QI-value         = 34.20
 optimisation between [QCUT,QGAM] = [ 13.34, 27.02] = [ 49.83,204.46] Ry 
 Optimized for a Real-space Cutoff    1.04 Angstroem

   l    n(q)    QCUT    max X(q) W(low)/X(q) W(high)/X(q)  e(spline) 
   0      8    13.340   148.539    0.85E-04    0.19E-03    0.21E-06
   0      8    13.340   106.192    0.84E-04    0.19E-03    0.21E-06
   1      8    13.340    73.877    0.18E-03    0.11E-03    0.36E-06
   1      8    13.340    50.042    0.17E-03    0.11E-03    0.36E-06
 Optimization of the real space projectors (new method)

 maximal supplied QI-value         = 34.20
 optimisation between [QCUT,QGAM] = [ 13.34, 27.02] = [ 49.83,204.46] Ry 
 Optimized for a Real-space Cutoff    0.98 Angstroem

   l    n(q)    QCUT    max X(q) W(low)/X(q) W(high)/X(q)  e(spline) 
   0      8    13.340   280.207    0.16E-03    0.35E-03    0.14E-06
   0      8    13.340   228.978    0.16E-03    0.35E-03    0.14E-06
   1      7    13.340    86.127    0.23E-03    0.25E-04    0.30E-06
   1      7    13.340    65.368    0.22E-03    0.27E-04    0.30E-06
 Optimization of the real space projectors (new method)

 maximal supplied QI-value         = 15.12
 optimisation between [QCUT,QGAM] = [ 13.45, 27.06] = [ 50.69,205.06] Ry 
 Optimized for a Real-space Cutoff    1.40 Angstroem

   l    n(q)    QCUT    max X(q) W(low)/X(q) W(high)/X(q)  e(spline) 
   1     11    13.455     3.180    0.18E-04    0.25E-04    0.55E-07
   1     11    13.455     5.351    0.12E-03    0.15E-03    0.24E-06
   2     10    13.455    66.565    0.13E-03    0.46E-04    0.26E-06
   2     10    13.455    63.466    0.13E-03    0.47E-04    0.27E-06
   0     11    13.455    85.644    0.47E-04    0.16E-04    0.33E-06
   0     11    13.455    44.119    0.43E-04    0.15E-04    0.30E-06
  PAW_PBE C_h 06Feb2004                 :
 energy of atom  1       EATOM= -147.1560
 kinetic energy error for atom=    0.0286 (will be added to EATOM!!)
  PAW_PBE C_h 06Feb2004                 :
 energy of atom  2       EATOM= -147.1560
 kinetic energy error for atom=    0.0286 (will be added to EATOM!!)
  PAW_PBE H 15Jun2001                   :
 energy of atom  3       EATOM=  -12.4884
 kinetic energy error for atom=    0.0002 (will be added to EATOM!!)
  PAW_PBE N_h 06Feb2004                 :
 energy of atom  4       EATOM= -264.5486
 kinetic energy error for atom=    0.0847 (will be added to EATOM!!)
  PAW_PBE O_h 06Feb2004                 :
 energy of atom  5       EATOM= -432.3788
 kinetic energy error for atom=    0.1855 (will be added to EATOM!!)
  PAW_PBE Ru_pv 28Jan2005               :
 energy of atom  6       EATOM=-1873.4746
 kinetic energy error for atom=    0.0017 (will be added to EATOM!!)
 
 
 POSCAR: C C H N O Ru                            
  positions in direct lattice
  velocities in cartesian coordinates
 exchange correlation table for  LEXCH =        8
   RHO(1)=    0.500       N(1)  =     2000
   RHO(2)=  100.500       N(2)  =     4000
 


--------------------------------------------------------------------------------------------------------


 ion  position               nearest neighbor table
   1  0.497  0.372  0.626-  31 1.09  51 1.36   7 1.39
   2  0.438  0.566  0.328-  43 1.09   3 1.39   6 1.39
   3  0.456  0.524  0.381-  38 1.09  49 1.36   2 1.39
   4  0.474  0.615  0.450-  34 1.09  49 1.36   5 1.39
   5  0.456  0.660  0.399-  33 1.09   4 1.39   6 1.40
   6  0.438  0.635  0.337-  32 1.09   2 1.39   5 1.40
   7  0.523  0.330  0.675-  26 1.09   1 1.39  16 1.40
   8  0.293  0.477  0.568-  45 1.09  25 1.39  17 1.40
   9  0.602  0.419  0.606-  51 1.37  10 1.40  14 1.47
  10  0.631  0.378  0.654-  28 1.09  16 1.39   9 1.40
  11  0.740  0.529  0.535-  41 1.09  15 1.39  12 1.40
  12  0.701  0.566  0.490-  37 1.09  13 1.39  11 1.40
  13  0.633  0.554  0.487-  47 1.09  53 1.36  12 1.39
  14  0.640  0.469  0.567-  53 1.37  15 1.40   9 1.47
  15  0.708  0.480  0.573-  36 1.09  11 1.39  14 1.40
  16  0.591  0.332  0.689-  27 1.09  10 1.39   7 1.40
  17  0.362  0.489  0.564-  50 1.37   8 1.40  21 1.46
  18  0.408  0.622  0.691-  48 1.09  22 1.39  19 1.40
  19  0.476  0.626  0.677-  44 1.09  20 1.39  18 1.40
  20  0.503  0.586  0.627-  42 1.09  52 1.36  19 1.39
  21  0.398  0.538  0.604-  52 1.38  22 1.40  17 1.46
  22  0.369  0.578  0.654-  30 1.09  18 1.39  21 1.40
  23  0.373  0.406  0.482-  39 1.09  50 1.35  24 1.39
  24  0.305  0.392  0.484-  40 1.09  23 1.39  25 1.40
  25  0.264  0.428  0.528-  46 1.09   8 1.39  24 1.40
  26  0.490  0.295  0.701-   7 1.09
  27  0.613  0.300  0.727-  16 1.09
  28  0.684  0.381  0.665-  10 1.09
  29  0.542  0.362  0.461-  54 0.97
  30  0.316  0.573  0.664-  22 1.09
  31  0.444  0.371  0.614-   1 1.09
  32  0.424  0.668  0.296-   6 1.09
  33  0.456  0.713  0.410-   5 1.09
  34  0.488  0.634  0.499-   4 1.09
  35  0.569  0.418  0.415-  54 0.98
  36  0.738  0.450  0.608-  15 1.09
  37  0.723  0.605  0.459-  12 1.09
  38  0.456  0.470  0.375-   3 1.09
  39  0.406  0.379  0.449-  23 1.09
  40  0.284  0.353  0.452-  24 1.09
  41  0.793  0.537  0.539-  11 1.09
  42  0.556  0.588  0.614-  20 1.09
  43  0.424  0.543  0.280-   2 1.09
  44  0.509  0.660  0.704-  19 1.09
  45  0.263  0.506  0.603-   8 1.09
  46  0.211  0.418  0.531-  25 1.09
  47  0.601  0.582  0.453-  13 1.09
  48  0.385  0.653  0.729-  18 1.09
  49  0.474  0.548  0.441-   4 1.36   3 1.36  55 2.12
  50  0.402  0.453  0.521-  23 1.35  17 1.37  55 2.06
  51  0.535  0.416  0.592-   1 1.36   9 1.37  55 2.06
  52  0.465  0.543  0.590-  20 1.36  21 1.38  55 2.01
  53  0.601  0.507  0.524-  13 1.36  14 1.37  55 2.08
  54  0.531  0.406  0.442-  29 0.97  35 0.98  55 2.24
  55  0.501  0.481  0.519-  52 2.01  50 2.06  51 2.06  53 2.08  49 2.12  54 2.24
 
  LATTYP: Found a simple cubic cell.
 ALAT       =    20.0000000000
  
  Lattice vectors:
  
 A1 = (  20.0000000000,   0.0000000000,   0.0000000000)
 A2 = (   0.0000000000,  20.0000000000,   0.0000000000)
 A3 = (   0.0000000000,   0.0000000000,  20.0000000000)


Analysis of symmetry for initial positions (statically):
=====================================================================
 Subroutine PRICEL returns:
 Original cell was already a primitive cell.
 

 Routine SETGRP: Setting up the symmetry group for a 
 simple cubic supercell.


 Subroutine GETGRP returns: Found  1 space group operations
 (whereof  1 operations were pure point group operations)
 out of a pool of 48 trial point group operations.


The static configuration has the point symmetry C_1 .


Analysis of symmetry for dynamics (positions and initial velocities):
=====================================================================
 Subroutine PRICEL returns:
 Original cell was already a primitive cell.
 

 Routine SETGRP: Setting up the symmetry group for a 
 simple cubic supercell.


 Subroutine GETGRP returns: Found  1 space group operations
 (whereof  1 operations were pure point group operations)
 out of a pool of 48 trial point group operations.


The dynamic configuration has the point symmetry C_1 .


Analysis of constrained symmetry for selective dynamics:
=====================================================================
 Subroutine PRICEL returns:
 Original cell was already a primitive cell.
 

 Routine SETGRP: Setting up the symmetry group for a 
 simple cubic supercell.


 Subroutine GETGRP returns: Found  1 space group operations
 (whereof  1 operations were pure point group operations)
 out of a pool of 48 trial point group operations.


The constrained configuration has the point symmetry C_1 .


Analysis of magnetic symmetry:
=====================================================================
 Subroutine PRICEL returns:
 Original cell was already a primitive cell.
 

 Subroutine MAGSYM returns: Found  1 space group operations
 (whereof  1 operations were pure point group operations)
 out of a pool of  1 trial space group operations
 (whereof  1 operations were pure point group operations)
 and found also     1 'primitive' translations


The magnetic configuration has the point symmetry C_1 .
 
 
 KPOINTS: K-Points                                

Automatic generation of k-mesh.
Space group operators:
 irot       det(A)        alpha          n_x          n_y          n_z        tau_x        tau_y        tau_z
    1     1.000000     0.000000     1.000000     0.000000     0.000000     0.000000     0.000000     0.000000
 
 Subroutine IBZKPT returns following result:
 ===========================================
 
 Found      1 irreducible k-points:
 
 Following reciprocal coordinates:
            Coordinates               Weight
  0.000000  0.000000  0.000000      1.000000
 
 Following cartesian coordinates:
            Coordinates               Weight
  0.000000  0.000000  0.000000      1.000000
 


--------------------------------------------------------------------------------------------------------




 Dimension of arrays:
   k-points           NKPTS =      1   k-points in BZ     NKDIM =      1   number of bands    NBANDS=    128
   number of dos      NEDOS =    301   number of ions     NIONS =     55
   non local maximal  LDIM  =      6   non local SUM 2l+1 LMDIM =     18
   total plane-waves  NPLWV = ******
   max r-space proj   IRMAX =   8473   max aug-charges    IRDMAX= 268848
   dimension x,y,z NGX =   180 NGY =  180 NGZ =  180
   dimension x,y,z NGXF=   360 NGYF=  360 NGZF=  360
   support grid    NGXF=   720 NGYF=  720 NGZF=  720
   ions per type =               1  24  23   5   1   1
 NGX,Y,Z   is equivalent  to a cutoff of  14.96, 14.96, 14.96 a.u.
 NGXF,Y,Z  is equivalent  to a cutoff of  29.92, 29.92, 29.92 a.u.


 I would recommend the setting:
   dimension x,y,z NGX =   173 NGY =  173 NGZ =  173
 SYSTEM =  c2_oh2_ruthenium_mol                    
 POSCAR =  C C H N O Ru                            

 Startparameter for this run:
   NWRITE =      2    write-flag & timer
   PREC   = accura    normal or accurate (medium, high low for compatibility)
   ISTART =      0    job   : 0-new  1-cont  2-samecut
   ICHARG =      2    charge: 1-file 2-atom 10-const
   ISPIN  =      2    spin polarized calculation?
   LNONCOLLINEAR =      F non collinear calculations
   LSORBIT =      F    spin-orbit coupling
   INIWAV =      1    electr: 0-lowe 1-rand  2-diag
   LASPH  =      F    aspherical Exc in radial PAW
   METAGGA=      F    non-selfconsistent MetaGGA calc.

 Electronic Relaxation 1
   ENCUT  =  700.0 eV  51.45 Ry    7.17 a.u.  43.15 43.15 43.15*2*pi/ulx,y,z
   ENINI  =  700.0     initial cutoff
   ENAUG  =  946.8 eV  augmentation charge cutoff
   NELM   =     60;   NELMIN=  2; NELMDL= -5     # of ELM steps 
   EDIFF  = 0.1E-04   stopping-criterion for ELM
   LREAL  =      T    real-space projection
   NLSPLINE    = F    spline interpolate recip. space projectors
   LCOMPAT=      F    compatible to vasp.4.4
   GGA_COMPAT  = T    GGA compatible to vasp.4.4-vasp.4.6
   LMAXPAW     = -100 max onsite density
   LMAXMIX     =    2 max onsite mixed and CHGCAR
   VOSKOWN=      0    Vosko Wilk Nusair interpolation
   ROPT   =   -0.00025  -0.00025  -0.00025  -0.00025
   ROPT   =   -0.00025  -0.00025
 Ionic relaxation
   EDIFFG = -.1E-01   stopping-criterion for IOM
   NSW    =      0    number of steps for IOM
   NBLOCK =      1;   KBLOCK =      1    inner block; outer block 
   IBRION =     -1    ionic relax: 0-MD 1-quasi-New 2-CG
   NFREE  =      0    steps in history (QN), initial steepest desc. (CG)
   ISIF   =      2    stress and relaxation
   IWAVPR =     10    prediction:  0-non 1-charg 2-wave 3-comb
   ISYM   =      2    0-nonsym 1-usesym 2-fastsym
   LCORR  =      T    Harris-Foulkes like correction to forces

   POTIM  = 0.5000    time-step for ionic-motion
   TEIN   =    0.0    initial temperature
   TEBEG  =    0.0;   TEEND  =   0.0 temperature during run
   SMASS  =  -3.00    Nose mass-parameter (am)
   estimated Nose-frequenzy (Omega)   =  0.10E-29 period in steps =****** mass=  -0.914E-26a.u.
   SCALEE = 1.0000    scale energy and forces
   NPACO  =    256;   APACO  = 16.0  distance and # of slots for P.C.
   PSTRESS=    0.0 pullay stress

  Mass of Ions in am
   POMASS =  12.01 12.01  1.00 14.00 16.00101.07
  Ionic Valenz
   ZVAL   =   4.50  4.00  1.00  5.00  6.00 14.00
  Atomic Wigner-Seitz radii
   RWIGS  =  -1.00 -1.00 -1.00 -1.00 -1.00 -1.00
  virtual crystal weights 
   VCA    =   1.00  1.00  1.00  1.00  1.00  1.00
   NELECT =     166.0000    total number of electrons
   NUPDOWN=       0.0000    fix difference up-down

 DOS related values:
   EMIN   =  10.00;   EMAX   =-10.00  energy-range for DOS
   EFERMI =   0.00
   ISMEAR =     0;   SIGMA  =   0.01  broadening in eV -4-tet -1-fermi 0-gaus

 Electronic relaxation 2 (details)
   IALGO  =     38    algorithm
   LDIAG  =      T    sub-space diagonalisation (order eigenvalues)
   LSUBROT=      F    optimize rotation matrix (better conditioning)
   TURBO    =      0    0=normal 1=particle mesh
   IRESTART =      0    0=no restart 2=restart with 2 vectors
   NREBOOT  =      0    no. of reboots
   NMIN     =      0    reboot dimension
   EREF     =   0.00    reference energy to select bands
   IMIX   =      4    mixing-type and parameters
     AMIX     =   0.40;   BMIX     =  2.00
     AMIX_MAG =   1.60;   BMIX_MAG =  2.00
     AMIN     =   0.10
     WC   =   100.;   INIMIX=   1;  MIXPRE=   1;  MAXMIX= -45

 Intra band minimization:
   WEIMIN = 0.0000     energy-eigenvalue tresh-hold
   EBREAK =  0.20E-07  absolut break condition
   DEPER  =   0.30     relativ break condition  

   TIME   =   0.05     timestep for ELM

  volume/ion in A,a.u.               =     145.45       981.58
  Fermi-wavevector in a.u.,A,eV,Ry     =   0.449864  0.850119  2.753510  0.202377
  Thomas-Fermi vector in A             =   1.430192
 
 Write flags
   LWAVE  =      T    write WAVECAR
   LCHARG =      T    write CHGCAR
   LVTOT  =      F    write LOCPOT, total local potential
   LVHAR  =      F    write LOCPOT, Hartree potential only
   LELF   =      F    write electronic localiz. function (ELF)
   LORBIT =      0    0 simple, 1 ext, 2 COOP (PROOUT)


 Dipole corrections
   LMONO  =      F    monopole corrections only (constant potential shift)
   LDIPOL =      F    correct potential (dipole corrections)
   IDIPOL =      0    1-x, 2-y, 3-z, 4-all directions 
   EPSILON=  1.0000000 bulk dielectric constant

 Core level calculations are selected ICORELEVEL =  2
  CLNT =           1       CLN =     1
  CLL  =           0       CLZ = 0.500
 Exchange correlation treatment:
   GGA     =    --    GGA type
   LEXCH   =     8    internal setting for exchange type
   VOSKOWN=      0    Vosko Wilk Nusair interpolation
   LHFCALC =     F    Hartree Fock is set to
   LHFONE  =     F    Hartree Fock one center treatment
   AEXX    =    0.0000 exact exchange contribution

 Linear response parameters
   LEPSILON=     F    determine dielectric tensor
   LRPA    =     F    only Hartree local field effects (RPA)
   LNABLA  =     F    use nabla operator in PAW spheres
   LVEL    =     F    velocity operator in full k-point grid
   LINTERFAST=   F  fast interpolation
   KINTER  =     0    interpolate to denser k-point grid
   CSHIFT  =0.1000    complex shift for real part using Kramers Kronig
   OMEGAMAX=  -1.0    maximum frequency
   DEG_THRESHOLD= 0.2000000E-02 threshold for treating states as degnerate
   RTIME   =    0.100 relaxation time in fs

 Orbital magnetization related:
   ORBITALMAG=     F  switch on orbital magnetization
   LCHIMAG   =     F  perturbation theory with respect to B field
   DQ        =  0.001000  dq finite difference perturbation B field



--------------------------------------------------------------------------------------------------------


 Static calculation
 charge density and potential will be updated during run
 spin polarized calculation
 Variant of blocked Davidson
 Davidson routine will perform the subspace rotation
 perform sub-space diagonalisation
    after iterative eigenvector-optimisation
 modified Broyden-mixing scheme, WC =      100.0
 initial mixing is a Kerker type mixing with AMIX =  0.4000 and BMIX =      2.0000
 Hartree-type preconditioning will be used
 using additional bands           45
 real space projection scheme for non local part
 use partial core corrections
 calculate Harris-corrections to forces 
   (improved forces if not selfconsistent)
 use gradient corrections 
 use of overlap-Matrix (Vanderbilt PP)
 Gauss-broadening in eV      SIGMA  =   0.01


--------------------------------------------------------------------------------------------------------


  energy-cutoff  :      700.00
  volume of cell :     8000.00
      direct lattice vectors                 reciprocal lattice vectors
    20.000000000  0.000000000  0.000000000     0.050000000  0.000000000  0.000000000
     0.000000000 20.000000000  0.000000000     0.000000000  0.050000000  0.000000000
     0.000000000  0.000000000 20.000000000     0.000000000  0.000000000  0.050000000

  length of vectors
    20.000000000 20.000000000 20.000000000     0.050000000  0.050000000  0.050000000


 
 k-points in units of 2pi/SCALE and weight: K-Points                                
   0.00000000  0.00000000  0.00000000       1.000
 
 k-points in reciprocal lattice and weights: K-Points                                
   0.00000000  0.00000000  0.00000000       1.000
 
 position of ions in fractional coordinates (direct lattice) 
   0.49710163  0.37190466  0.62618823
   0.43793752  0.56561110  0.32757008
   0.45581208  0.52423376  0.38051465
   0.47372925  0.61530131  0.44986522
   0.45595175  0.65963312  0.39935201
   0.43785737  0.63472201  0.33675972
   0.52307882  0.32955005  0.67474498
   0.29334713  0.47671938  0.56830116
   0.60227374  0.41933300  0.60593616
   0.63096398  0.37761922  0.65422416
   0.73964927  0.52855915  0.53463181
   0.70082162  0.56612858  0.49044049
   0.63257913  0.55363620  0.48652424
   0.63952130  0.46927713  0.56732841
   0.70843899  0.47974495  0.57314689
   0.59134754  0.33224398  0.68903016
   0.36211554  0.48866484  0.56417415
   0.40790931  0.62211625  0.69058213
   0.47619960  0.62606623  0.67660612
   0.50295190  0.58590820  0.62668073
   0.39825425  0.53800137  0.60426081
   0.36904589  0.57756069  0.65398228
   0.37289802  0.40579857  0.48223443
   0.30486503  0.39173492  0.48443166
   0.26422003  0.42785518  0.52821594
   0.48989745  0.29510618  0.70074864
   0.61334240  0.29968355  0.72673159
   0.68424189  0.38076917  0.66478776
   0.54225374  0.36233861  0.46129841
   0.31579090  0.57306911  0.66420366
   0.44416348  0.37118871  0.61364770
   0.42392665  0.66833230  0.29622671
   0.45642762  0.71313270  0.40950260
   0.48809132  0.63358802  0.49907234
   0.56912778  0.41808713  0.41480476
   0.73767440  0.44963919  0.60776512
   0.72277620  0.60481012  0.45904817
   0.45570253  0.47012894  0.37468790
   0.40614333  0.37888556  0.44852541
   0.28443799  0.35306162  0.45202062
   0.79326502  0.53703787  0.53892527
   0.55589708  0.58769132  0.61440612
   0.42412006  0.54328620  0.27986105
   0.50894741  0.65984570  0.70400156
   0.26265982  0.50568523  0.60265428
   0.21072272  0.41813760  0.53105039
   0.60090654  0.58197914  0.45254259
   0.38544357  0.65296704  0.72941133
   0.47424490  0.54794204  0.44140236
   0.40180479  0.45306079  0.52108436
   0.53520702  0.41608490  0.59173240
   0.46544808  0.54254992  0.59041194
   0.60138410  0.50650621  0.52397638
   0.53073984  0.40562607  0.44215451
   0.50088568  0.48087016  0.51934246
 
 position of ions in cartesian coordinates  (Angst):
   9.94203263  7.43809325 12.52376455
   8.75875044 11.31222209  6.55140167
   9.11624161 10.48467523  7.61029296
   9.47458509 12.30602619  8.99730442
   9.11903505 13.19266234  7.98704025
   8.75714739 12.69444028  6.73519441
  10.46157638  6.59100110 13.49489953
   5.86694270  9.53438759 11.36602327
  12.04547477  8.38665999 12.11872314
  12.61927957  7.55238445 13.08448329
  14.79298537 10.57118301 10.69263621
  14.01643234 11.32257164  9.80880974
  12.65158254 11.07272405  9.73048485
  12.79042597  9.38554253 11.34656829
  14.16877978  9.59489901 11.46293786
  11.82695089  6.64487969 13.78060313
   7.24231077  9.77329687 11.28348299
   8.15818611 12.44232505 13.81164268
   9.52399198 12.52132464 13.53212240
  10.05903801 11.71816400 12.53361469
   7.96508499 10.76002740 12.08521614
   7.38091777 11.55121387 13.07964553
   7.45796037  8.11597149  9.64468853
   6.09730063  7.83469839  9.68863321
   5.28440067  8.55710369 10.56431882
   9.79794892  5.90212351 14.01497288
  12.26684793  5.99367109 14.53463185
  13.68483783  7.61538334 13.29575520
  10.84507475  7.24677213  9.22596819
   6.31581791 11.46138226 13.28407311
   8.88326966  7.42377422 12.27295397
   8.47853309 13.36664601  5.92453423
   9.12855243 14.26265408  8.19005201
   9.76182647 12.67176037  9.98144677
  11.38255564  8.36174255  8.29609511
  14.75348806  8.99278384 12.15530242
  14.45552391 12.09620238  9.18096343
   9.11405064  9.40257887  7.49375804
   8.12286663  7.57771114  8.97050829
   5.68875982  7.06123239  9.04041232
  15.86530045 10.74075733 10.77850539
  11.11794158 11.75382641 12.28812234
   8.48240128 10.86572407  5.59722093
  10.17894811 13.19691406 14.08003122
   5.25319634 10.11370460 12.05308551
   4.21445446  8.36275200 10.62100772
  12.01813087 11.63958272  9.05085175
   7.70887141 13.05934086 14.58822659
   9.48489793 10.95884088  8.82804729
   8.03609572  9.06121573 10.42168714
  10.70414049  8.32169803 11.83464804
   9.30896151 10.85099836 11.80823871
  12.02768196 10.13012430 10.47952760
  10.61479684  8.11252146  8.84309019
  10.01771355  9.61740316 10.38684921
 


--------------------------------------------------------------------------------------------------------


 k-point  1 :   0.0000 0.0000 0.0000  plane waves:  336427

 maximum and minimum number of plane-waves per node :    336427   336427

 maximum number of plane-waves:    336427
 maximum index in each direction: 
   IXMAX=   43   IYMAX=   43   IZMAX=   43
   IXMIN=  -43   IYMIN=  -43   IZMIN=  -43

 NGX is ok and might be reduce to 174
 NGY is ok and might be reduce to 174
 NGZ is ok and might be reduce to 174

 serial   3D FFT for wavefunctions
 parallel 3D FFT for charge:
    minimum data exchange during FFTs selected (reduces bandwidth)


 total amount of memory used by VASP on root node   877132. kBytes
========================================================================

   base      :      30000. kBytes
   nonlr-proj:      19361. kBytes
   fftplans  :     269516. kBytes
   grid      :     534988. kBytes
   one-center:       1710. kBytes
   wavefun   :      21557. kBytes
 
     INWAV:  cpu time    0.00: real time    0.00
 Broyden mixing: mesh for mixing (old mesh)
   NGX = 87   NGY = 87   NGZ = 87
  (NGX  =360   NGY  =360   NGZ  =360)
  gives a total of 658503 points

 initial charge density was supplied:
 charge density of overlapping atoms calculated
 number of electron     168.5000000 magnetization       0.0000000
 keeping initial charge density in first step


--------------------------------------------------------------------------------------------------------


 Maximum index for non-local projection operator         8166
 Maximum index for augmentation-charges         3214 (set IRDMAX)


--------------------------------------------------------------------------------------------------------


 First call to EWALD:  gamma=   0.089
 Maximum number of real-space cells 3x 3x 3
 Maximum number of reciprocal cells 3x 3x 3

 FEWALD executed in parallel
    FEWALD:  cpu time    0.00: real time    0.00


----------------------------------------- Iteration    1(   1)  ---------------------------------------


    POTLOK:  cpu time    4.72: real time    4.75
    SETDIJ:  cpu time    2.82: real time    2.84
     EDDAV:  cpu time   14.81: real time   15.73
       DOS:  cpu time    0.02: real time    0.02
    --------------------------------------------
      LOOP:  cpu time   22.37: real time   23.33

 eigenvalue-minimisations  :   768
 total energy-change (2. order) : 0.9087975E+03  (-0.5882032E+04)
 number of electron     168.5000000 magnetization       0.0000000
 augmentation part      168.5000000 magnetization       0.0000000

 Free energy of the ion-electron system (eV)
  ---------------------------------------------------
  alpha Z        PSCENC =        12.91687988
  Ewald energy   TEWEN  =     23316.77270552
  -Hartree energ DENC   =    -28918.80440295
  -exchange      EXHF   =         0.00000000
  -V(xc)+E(xc)   XCENC  =       400.96086655
  PAW double counting   =      5890.45591622    -5710.10246236
  entropy T*S    EENTRO =        -0.00033608
  eigenvalues    EBANDS =     -1676.80161752
  atomic energy  EATOM  =      7593.39991119
  ---------------------------------------------------
  free energy    TOTEN  =       908.79746045 eV

  energy without entropy =      908.79779653  energy(sigma->0) =      908.79762849


--------------------------------------------------------------------------------------------------------




----------------------------------------- Iteration    1(   2)  ---------------------------------------


     EDDAV:  cpu time   19.24: real time   20.30
       DOS:  cpu time    0.01: real time    0.01
    --------------------------------------------
      LOOP:  cpu time   19.25: real time   20.31

 eigenvalue-minimisations  :  1024
 total energy-change (2. order) :-0.9770566E+03  (-0.9706098E+03)
 number of electron     168.5000000 magnetization       0.0000000
 augmentation part      168.5000000 magnetization       0.0000000

 Free energy of the ion-electron system (eV)
  ---------------------------------------------------
  alpha Z        PSCENC =        12.91687988
  Ewald energy   TEWEN  =     23316.77270552
  -Hartree energ DENC   =    -28918.80440295
  -exchange      EXHF   =         0.00000000
  -V(xc)+E(xc)   XCENC  =       400.96086655
  PAW double counting   =      5890.45591622    -5710.10246236
  entropy T*S    EENTRO =        -0.00000000
  eigenvalues    EBANDS =     -2653.85855189
  atomic energy  EATOM  =      7593.39991119
  ---------------------------------------------------
  free energy    TOTEN  =       -68.25913784 eV

  energy without entropy =      -68.25913784  energy(sigma->0) =      -68.25913784


--------------------------------------------------------------------------------------------------------




----------------------------------------- Iteration    1(   3)  ---------------------------------------


     EDDAV:  cpu time   16.01: real time   16.93
       DOS:  cpu time    0.01: real time    0.01
    --------------------------------------------
      LOOP:  cpu time   16.02: real time   16.94

 eigenvalue-minimisations  :   832
 total energy-change (2. order) :-0.3241069E+03  (-0.3236665E+03)
 number of electron     168.5000000 magnetization       0.0000000
 augmentation part      168.5000000 magnetization       0.0000000

 Free energy of the ion-electron system (eV)
  ---------------------------------------------------
  alpha Z        PSCENC =        12.91687988
  Ewald energy   TEWEN  =     23316.77270552
  -Hartree energ DENC   =    -28918.80440295
  -exchange      EXHF   =         0.00000000
  -V(xc)+E(xc)   XCENC  =       400.96086655
  PAW double counting   =      5890.45591622    -5710.10246236
  entropy T*S    EENTRO =        -0.00000000
  eigenvalues    EBANDS =     -2977.96543955
  atomic energy  EATOM  =      7593.39991119
  ---------------------------------------------------
  free energy    TOTEN  =      -392.36602550 eV

  energy without entropy =     -392.36602550  energy(sigma->0) =     -392.36602550


--------------------------------------------------------------------------------------------------------




----------------------------------------- Iteration    1(   4)  ---------------------------------------


     EDDAV:  cpu time   13.77: real time   14.61
       DOS:  cpu time    0.02: real time    0.02
    --------------------------------------------
      LOOP:  cpu time   13.79: real time   14.63

 eigenvalue-minimisations  :   704
 total energy-change (2. order) :-0.1914809E+02  (-0.1912104E+02)
 number of electron     168.5000000 magnetization       0.0000000
 augmentation part      168.5000000 magnetization       0.0000000

 Free energy of the ion-electron system (eV)
  ---------------------------------------------------
  alpha Z        PSCENC =        12.91687988
  Ewald energy   TEWEN  =     23316.77270552
  -Hartree energ DENC   =    -28918.80440295
  -exchange      EXHF   =         0.00000000
  -V(xc)+E(xc)   XCENC  =       400.96086655
  PAW double counting   =      5890.45591622    -5710.10246236
  entropy T*S    EENTRO =        -0.00000000
  eigenvalues    EBANDS =     -2997.11352604
  atomic energy  EATOM  =      7593.39991119
  ---------------------------------------------------
  free energy    TOTEN  =      -411.51411198 eV

  energy without entropy =     -411.51411198  energy(sigma->0) =     -411.51411198


--------------------------------------------------------------------------------------------------------




----------------------------------------- Iteration    1(   5)  ---------------------------------------


     EDDAV:  cpu time   16.01: real time   16.95
       DOS:  cpu time    0.01: real time    0.01
    CHARGE:  cpu time    5.22: real time    5.25
    MIXING:  cpu time    0.08: real time    0.09
    --------------------------------------------
      LOOP:  cpu time   21.33: real time   22.30

 eigenvalue-minimisations  :   832
 total energy-change (2. order) :-0.2478370E+00  (-0.2477566E+00)
 number of electron     166.0000000 magnetization       0.0000000
 augmentation part        3.5155694 magnetization      -0.0001264

 Broyden mixing:
  rms(total) = 0.57637E+01    rms(broyden)= 0.57630E+01
  rms(prec ) = 0.61565E+01
  weight for this iteration     100.00

 Free energy of the ion-electron system (eV)
  ---------------------------------------------------
  alpha Z        PSCENC =        12.91687988
  Ewald energy   TEWEN  =     23316.77270552
  -Hartree energ DENC   =    -28918.80440295
  -exchange      EXHF   =         0.00000000
  -V(xc)+E(xc)   XCENC  =       400.96086655
  PAW double counting   =      5890.45591622    -5710.10246236
  entropy T*S    EENTRO =        -0.00000000
  eigenvalues    EBANDS =     -2997.36136305
  atomic energy  EATOM  =      7593.39991119
  ---------------------------------------------------
  free energy    TOTEN  =      -411.76194900 eV

  energy without entropy =     -411.76194900  energy(sigma->0) =     -411.76194900


--------------------------------------------------------------------------------------------------------




----------------------------------------- Iteration    1(   6)  ---------------------------------------


    POTLOK:  cpu time    4.60: real time    4.62
    SETDIJ:  cpu time    2.79: real time    2.79
     EDDAV:  cpu time   10.85: real time   11.49
       DOS:  cpu time    0.01: real time    0.01
    CHARGE:  cpu time    5.14: real time    5.14
    MIXING:  cpu time    0.11: real time    0.10
    --------------------------------------------
      LOOP:  cpu time   23.49: real time   24.15

 eigenvalue-minimisations  :   512
 total energy-change (2. order) : 0.1803298E+02  (-0.3880740E+02)
 number of electron     166.0000000 magnetization       0.0000000
 augmentation part        6.5203153 magnetization       0.0004661

 Broyden mixing:
  rms(total) = 0.39080E+01    rms(broyden)= 0.39078E+01
  rms(prec ) = 0.40828E+01
  weight for this iteration     100.00

 eigenvalues of (default mixing * dielectric matrix)
  average eigenvalue GAMMA=   1.0301
  1.0301

 Free energy of the ion-electron system (eV)
  ---------------------------------------------------
  alpha Z        PSCENC =        12.91687988
  Ewald energy   TEWEN  =     23316.77270552
  -Hartree energ DENC   =    -28920.30964100
  -exchange      EXHF   =         0.00000000
  -V(xc)+E(xc)   XCENC  =       406.46458012
  PAW double counting   =     20890.61522896   -20723.40131411
  entropy T*S    EENTRO =        -0.00000000
  eigenvalues    EBANDS =     -2970.18731980
  atomic energy  EATOM  =      7593.39991119
  ---------------------------------------------------
  free energy    TOTEN  =      -393.72896924 eV

  energy without entropy =     -393.72896924  energy(sigma->0) =     -393.72896924


--------------------------------------------------------------------------------------------------------




----------------------------------------- Iteration    1(   7)  ---------------------------------------


    POTLOK:  cpu time    4.56: real time    4.59
    SETDIJ:  cpu time    2.82: real time    2.82
     EDDAV:  cpu time   15.01: real time   16.47
       DOS:  cpu time    0.04: real time    0.04
    CHARGE:  cpu time    5.21: real time    5.21
    MIXING:  cpu time    0.16: real time    0.16
    --------------------------------------------
      LOOP:  cpu time   27.80: real time   29.30

 eigenvalue-minimisations  :   768
 total energy-change (2. order) : 0.1085810E+02  (-0.2333372E+01)
 number of electron     166.0000000 magnetization       0.0000000
 augmentation part        5.5931552 magnetization       0.0003618

 Broyden mixing:
  rms(total) = 0.23840E+01    rms(broyden)= 0.23840E+01
  rms(prec ) = 0.24586E+01
  weight for this iteration     100.00

 eigenvalues of (default mixing * dielectric matrix)
  average eigenvalue GAMMA=   1.4070
  0.7517  2.0623

 Free energy of the ion-electron system (eV)
  ---------------------------------------------------
  alpha Z        PSCENC =        12.91687988
  Ewald energy   TEWEN  =     23316.77270552
  -Hartree energ DENC   =    -29049.12284475
  -exchange      EXHF   =         0.00000000
  -V(xc)+E(xc)   XCENC  =       411.77884519
  PAW double counting   =     36057.02362230   -35884.95462029
  entropy T*S    EENTRO =        -0.00000000
  eigenvalues    EBANDS =     -2840.68536655
  atomic energy  EATOM  =      7593.39991119
  ---------------------------------------------------
  free energy    TOTEN  =      -382.87086751 eV

  energy without entropy =     -382.87086751  energy(sigma->0) =     -382.87086751


--------------------------------------------------------------------------------------------------------




----------------------------------------- Iteration    1(   8)  ---------------------------------------


    POTLOK:  cpu time    4.58: real time    4.61
    SETDIJ:  cpu time    2.80: real time    2.81
     EDDAV:  cpu time   15.19: real time   16.46
       DOS:  cpu time    0.05: real time    0.05
    CHARGE:  cpu time    5.17: real time    5.17
    MIXING:  cpu time    0.08: real time    0.09
    --------------------------------------------
      LOOP:  cpu time   27.88: real time   29.18

 eigenvalue-minimisations  :   768
 total energy-change (2. order) : 0.4379746E+01  (-0.1720752E+01)
 number of electron     166.0000000 magnetization       0.0000000
 augmentation part        4.8786600 magnetization       0.0001135

 Broyden mixing:
  rms(total) = 0.97153E+00    rms(broyden)= 0.97149E+00
  rms(prec ) = 0.10502E+01
  weight for this iteration     100.00

 eigenvalues of (default mixing * dielectric matrix)
  average eigenvalue GAMMA=   1.4578
  2.7025  0.8354  0.8354

 Free energy of the ion-electron system (eV)
  ---------------------------------------------------
  alpha Z        PSCENC =        12.91687988
  Ewald energy   TEWEN  =     23316.77270552
  -Hartree energ DENC   =    -29199.88810016
  -exchange      EXHF   =         0.00000000
  -V(xc)+E(xc)   XCENC  =       419.56770239
  PAW double counting   =     68369.65081180   -68194.26246245
  entropy T*S    EENTRO =        -0.00000000
  eigenvalues    EBANDS =     -2696.64857011
  atomic energy  EATOM  =      7593.39991119
  ---------------------------------------------------
  free energy    TOTEN  =      -378.49112193 eV

  energy without entropy =     -378.49112193  energy(sigma->0) =     -378.49112193


--------------------------------------------------------------------------------------------------------




----------------------------------------- Iteration    1(   9)  ---------------------------------------


    POTLOK:  cpu time    4.60: real time    4.62
    SETDIJ:  cpu time    2.84: real time    2.84
     EDDAV:  cpu time   15.06: real time   16.34
       DOS:  cpu time    0.04: real time    0.04
    CHARGE:  cpu time    5.25: real time    5.25
    MIXING:  cpu time    0.07: real time    0.07
    --------------------------------------------
      LOOP:  cpu time   27.86: real time   29.16

 eigenvalue-minimisations  :   768
 total energy-change (2. order) : 0.1201640E+01  (-0.4806315E+00)
 number of electron     166.0000000 magnetization       0.0000000
 augmentation part        5.2204599 magnetization       0.0000853

 Broyden mixing:
  rms(total) = 0.36863E+00    rms(broyden)= 0.36860E+00
  rms(prec ) = 0.40669E+00
  weight for this iteration     100.00

 eigenvalues of (default mixing * dielectric matrix)
  average eigenvalue GAMMA=   1.3249
  2.5403  1.1407  0.8092  0.8092

 Free energy of the ion-electron system (eV)
  ---------------------------------------------------
  alpha Z        PSCENC =        12.91687988
  Ewald energy   TEWEN  =     23316.77270552
  -Hartree energ DENC   =    -29224.67769524
  -exchange      EXHF   =         0.00000000
  -V(xc)+E(xc)   XCENC  =       422.52622839
  PAW double counting   =     82757.62027469   -82583.96357395
  entropy T*S    EENTRO =        -0.00000000
  eigenvalues    EBANDS =     -2671.88421263
  atomic energy  EATOM  =      7593.39991119
  ---------------------------------------------------
  free energy    TOTEN  =      -377.28948216 eV

  energy without entropy =     -377.28948216  energy(sigma->0) =     -377.28948216


--------------------------------------------------------------------------------------------------------




----------------------------------------- Iteration    1(  10)  ---------------------------------------


    POTLOK:  cpu time    4.59: real time    4.61
    SETDIJ:  cpu time    2.82: real time    2.83
     EDDAV:  cpu time   15.23: real time   16.50
       DOS:  cpu time    0.05: real time    0.05
    CHARGE:  cpu time    5.15: real time    5.16
    MIXING:  cpu time    0.10: real time    0.10
    --------------------------------------------
      LOOP:  cpu time   27.94: real time   29.25

 eigenvalue-minimisations  :   768
 total energy-change (2. order) : 0.5126650E-01  (-0.4528001E-01)
 number of electron     166.0000000 magnetization       0.0000000
 augmentation part        5.3289790 magnetization       0.0000377

 Broyden mixing:
  rms(total) = 0.25744E+00    rms(broyden)= 0.25744E+00
  rms(prec ) = 0.30014E+00
  weight for this iteration     100.00

 eigenvalues of (default mixing * dielectric matrix)
  average eigenvalue GAMMA=   1.4016
  2.5001  1.8073  0.8558  0.8558  0.9889

 Free energy of the ion-electron system (eV)
  ---------------------------------------------------
  alpha Z        PSCENC =        12.91687988
  Ewald energy   TEWEN  =     23316.77270552
  -Hartree energ DENC   =    -29210.84371090
  -exchange      EXHF   =         0.00000000
  -V(xc)+E(xc)   XCENC  =       422.48929123
  PAW double counting   =     81438.12712449   -81265.03700525
  entropy T*S    EENTRO =        -0.00000000
  eigenvalues    EBANDS =     -2685.06341182
  atomic energy  EATOM  =      7593.39991119
  ---------------------------------------------------
  free energy    TOTEN  =      -377.23821566 eV

  energy without entropy =     -377.23821566  energy(sigma->0) =     -377.23821566


--------------------------------------------------------------------------------------------------------




----------------------------------------- Iteration    1(  11)  ---------------------------------------


    POTLOK:  cpu time    4.60: real time    4.62
    SETDIJ:  cpu time    2.79: real time    2.80
     EDDAV:  cpu time   15.06: real time   16.33
       DOS:  cpu time    0.05: real time    0.05
    CHARGE:  cpu time    5.23: real time    5.24
    MIXING:  cpu time    0.13: real time    0.13
    --------------------------------------------
      LOOP:  cpu time   27.85: real time   29.15

 eigenvalue-minimisations  :   768
 total energy-change (2. order) : 0.1396609E+00  (-0.1655544E-01)
 number of electron     166.0000000 magnetization       0.0000000
 augmentation part        5.2794123 magnetization       0.0000033

 Broyden mixing:
  rms(total) = 0.10328E+00    rms(broyden)= 0.10328E+00
  rms(prec ) = 0.14629E+00
  weight for this iteration     100.00

 eigenvalues of (default mixing * dielectric matrix)
  average eigenvalue GAMMA=   1.4607
  2.5840  2.5840  0.8699  0.8699  0.8665  0.9895

 Free energy of the ion-electron system (eV)
  ---------------------------------------------------
  alpha Z        PSCENC =        12.91687988
  Ewald energy   TEWEN  =     23316.77270552
  -Hartree energ DENC   =    -29208.79040242
  -exchange      EXHF   =         0.00000000
  -V(xc)+E(xc)   XCENC  =       423.21897653
  PAW double counting   =     81982.75029091   -81809.47899932
  entropy T*S    EENTRO =        -0.00000000
  eigenvalues    EBANDS =     -2687.88791700
  atomic energy  EATOM  =      7593.39991119
  ---------------------------------------------------
  free energy    TOTEN  =      -377.09855471 eV

  energy without entropy =     -377.09855471  energy(sigma->0) =     -377.09855471


--------------------------------------------------------------------------------------------------------




----------------------------------------- Iteration    1(  12)  ---------------------------------------


    POTLOK:  cpu time    4.59: real time    4.61
    SETDIJ:  cpu time    2.80: real time    2.80
     EDDAV:  cpu time   15.19: real time   16.47
       DOS:  cpu time    0.04: real time    0.04
    CHARGE:  cpu time    5.29: real time    5.29
    MIXING:  cpu time    0.10: real time    0.10
    --------------------------------------------
      LOOP:  cpu time   28.00: real time   29.31

 eigenvalue-minimisations  :   768
 total energy-change (2. order) : 0.6570267E-01  (-0.6062060E-02)
 number of electron     166.0000000 magnetization       0.0000000
 augmentation part        5.2558087 magnetization      -0.0000097

 Broyden mixing:
  rms(total) = 0.65735E-01    rms(broyden)= 0.65732E-01
  rms(prec ) = 0.98080E-01
  weight for this iteration     100.00

 eigenvalues of (default mixing * dielectric matrix)
  average eigenvalue GAMMA=   1.4325
  2.7662  2.7662  1.0193  1.0193  0.8657  0.8657  0.7252

 Free energy of the ion-electron system (eV)
  ---------------------------------------------------
  alpha Z        PSCENC =        12.91687988
  Ewald energy   TEWEN  =     23316.77270552
  -Hartree energ DENC   =    -29203.02268074
  -exchange      EXHF   =         0.00000000
  -V(xc)+E(xc)   XCENC  =       423.74060883
  PAW double counting   =     81655.63761983   -81482.34080633
  entropy T*S    EENTRO =        -0.00000000
  eigenvalues    EBANDS =     -2694.13709023
  atomic energy  EATOM  =      7593.39991119
  ---------------------------------------------------
  free energy    TOTEN  =      -377.03285205 eV

  energy without entropy =     -377.03285205  energy(sigma->0) =     -377.03285205


--------------------------------------------------------------------------------------------------------




----------------------------------------- Iteration    1(  13)  ---------------------------------------


    POTLOK:  cpu time    4.59: real time    4.61
    SETDIJ:  cpu time    2.82: real time    2.82
     EDDAV:  cpu time   15.07: real time   16.34
       DOS:  cpu time    0.05: real time    0.05
    CHARGE:  cpu time    5.11: real time    5.11
    MIXING:  cpu time    0.31: real time    0.31
    --------------------------------------------
      LOOP:  cpu time   27.95: real time   29.24

 eigenvalue-minimisations  :   768
 total energy-change (2. order) : 0.1887506E-01  (-0.1488557E-02)
 number of electron     166.0000000 magnetization       0.0000000
 augmentation part        5.2590798 magnetization      -0.0000127

 Broyden mixing:
  rms(total) = 0.48713E-01    rms(broyden)= 0.48712E-01
  rms(prec ) = 0.73898E-01
  weight for this iteration     100.00

 eigenvalues of (default mixing * dielectric matrix)
  average eigenvalue GAMMA=   1.5102
  3.0053  3.0053  1.5208  1.1851  0.8710  0.8710  1.0046  0.6186

 Free energy of the ion-electron system (eV)
  ---------------------------------------------------
  alpha Z        PSCENC =        12.91687988
  Ewald energy   TEWEN  =     23316.77270552
  -Hartree energ DENC   =    -29196.54503652
  -exchange      EXHF   =         0.00000000
  -V(xc)+E(xc)   XCENC  =       423.97789688
  PAW double counting   =     81274.31841410   -81101.09250135
  entropy T*S    EENTRO =        -0.00000000
  eigenvalues    EBANDS =     -2700.76224668
  atomic energy  EATOM  =      7593.39991119
  ---------------------------------------------------
  free energy    TOTEN  =      -377.01397698 eV

  energy without entropy =     -377.01397698  energy(sigma->0) =     -377.01397698


--------------------------------------------------------------------------------------------------------




----------------------------------------- Iteration    1(  14)  ---------------------------------------


    POTLOK:  cpu time    4.60: real time    4.63
    SETDIJ:  cpu time    2.66: real time    2.88
     EDDAV:  cpu time   15.21: real time   16.50
       DOS:  cpu time    0.05: real time    0.05
    CHARGE:  cpu time    5.10: real time    5.10
    MIXING:  cpu time    0.29: real time    0.29
    --------------------------------------------
      LOOP:  cpu time   27.93: real time   29.45

 eigenvalue-minimisations  :   768
 total energy-change (2. order) : 0.1268749E-01  (-0.1451300E-02)
 number of electron     166.0000000 magnetization       0.0000000
 augmentation part        5.2588765 magnetization      -0.0000072

 Broyden mixing:
  rms(total) = 0.31806E-01    rms(broyden)= 0.31805E-01
  rms(prec ) = 0.48178E-01
  weight for this iteration     100.00

 eigenvalues of (default mixing * dielectric matrix)
  average eigenvalue GAMMA=   1.5215
  3.8743  2.7189  1.8869  1.2154  0.8756  0.8756  0.9389  0.7322  0.5762

 Free energy of the ion-electron system (eV)
  ---------------------------------------------------
  alpha Z        PSCENC =        12.91687988
  Ewald energy   TEWEN  =     23316.77270552
  -Hartree energ DENC   =    -29187.50826635
  -exchange      EXHF   =         0.00000000
  -V(xc)+E(xc)   XCENC  =       424.25023397
  PAW double counting   =     81043.06900506   -80869.89562963
  entropy T*S    EENTRO =        -0.00000000
  eigenvalues    EBANDS =     -2710.00612915
  atomic energy  EATOM  =      7593.39991119
  ---------------------------------------------------
  free energy    TOTEN  =      -377.00128950 eV

  energy without entropy =     -377.00128950  energy(sigma->0) =     -377.00128950


--------------------------------------------------------------------------------------------------------




----------------------------------------- Iteration    1(  15)  ---------------------------------------


    POTLOK:  cpu time    4.60: real time    4.62
    SETDIJ:  cpu time    2.81: real time    2.81
     EDDAV:  cpu time   15.09: real time   16.35
       DOS:  cpu time    0.05: real time    0.05
    CHARGE:  cpu time    5.03: real time    5.03
    MIXING:  cpu time    0.22: real time    0.21
    --------------------------------------------
      LOOP:  cpu time   27.79: real time   29.07

 eigenvalue-minimisations  :   768
 total energy-change (2. order) : 0.9484554E-03  (-0.5582064E-03)
 number of electron     166.0000000 magnetization       0.0000000
 augmentation part        5.2570616 magnetization       0.0000006

 Broyden mixing:
  rms(total) = 0.27358E-01    rms(broyden)= 0.27358E-01
  rms(prec ) = 0.36950E-01
  weight for this iteration     100.00

 eigenvalues of (default mixing * dielectric matrix)
  average eigenvalue GAMMA=   1.5616
  4.7345  2.4701  2.0926  1.3905  1.0366  1.0366  0.8590  0.8590  0.6333  0.5042

 Free energy of the ion-electron system (eV)
  ---------------------------------------------------
  alpha Z        PSCENC =        12.91687988
  Ewald energy   TEWEN  =     23316.77270552
  -Hartree energ DENC   =    -29180.14475498
  -exchange      EXHF   =         0.00000000
  -V(xc)+E(xc)   XCENC  =       424.39132446
  PAW double counting   =     81068.61919929   -80895.44819747
  entropy T*S    EENTRO =        -0.00000000
  eigenvalues    EBANDS =     -2717.50740893
  atomic energy  EATOM  =      7593.39991119
  ---------------------------------------------------
  free energy    TOTEN  =      -377.00034104 eV

  energy without entropy =     -377.00034104  energy(sigma->0) =     -377.00034104


--------------------------------------------------------------------------------------------------------




----------------------------------------- Iteration    1(  16)  ---------------------------------------


    POTLOK:  cpu time    4.76: real time    4.79
    SETDIJ:  cpu time    2.80: real time    2.80
     EDDAV:  cpu time   15.20: real time   16.50
       DOS:  cpu time    0.04: real time    0.04
    CHARGE:  cpu time    5.15: real time    5.16
    MIXING:  cpu time    0.14: real time    0.14
    --------------------------------------------
      LOOP:  cpu time   28.10: real time   29.44

 eigenvalue-minimisations  :   768
 total energy-change (2. order) :-0.5069317E-02  (-0.1378247E-03)
 number of electron     166.0000000 magnetization       0.0000000
 augmentation part        5.2572921 magnetization      -0.0000061

 Broyden mixing:
  rms(total) = 0.18019E-01    rms(broyden)= 0.18018E-01
  rms(prec ) = 0.25617E-01
  weight for this iteration     100.00

 eigenvalues of (default mixing * dielectric matrix)
  average eigenvalue GAMMA=   1.6760
  5.5354  2.5657  2.5657  1.5202  1.5202  0.8742  0.8742  0.9308  0.9308  0.6269
  0.4916

 Free energy of the ion-electron system (eV)
  ---------------------------------------------------
  alpha Z        PSCENC =        12.91687988
  Ewald energy   TEWEN  =     23316.77270552
  -Hartree energ DENC   =    -29174.12169739
  -exchange      EXHF   =         0.00000000
  -V(xc)+E(xc)   XCENC  =       424.41395492
  PAW double counting   =     81124.10025423   -80950.91941082
  entropy T*S    EENTRO =        -0.00000000
  eigenvalues    EBANDS =     -2723.56800790
  atomic energy  EATOM  =      7593.39991119
  ---------------------------------------------------
  free energy    TOTEN  =      -377.00541036 eV

  energy without entropy =     -377.00541036  energy(sigma->0) =     -377.00541036


--------------------------------------------------------------------------------------------------------




----------------------------------------- Iteration    1(  17)  ---------------------------------------


    POTLOK:  cpu time    4.62: real time    4.64
    SETDIJ:  cpu time    2.80: real time    2.80
     EDDAV:  cpu time   15.05: real time   16.35
       DOS:  cpu time    0.05: real time    0.05
    CHARGE:  cpu time    5.13: real time    5.14
    MIXING:  cpu time    0.19: real time    0.19
    --------------------------------------------
      LOOP:  cpu time   27.84: real time   29.17

 eigenvalue-minimisations  :   768
 total energy-change (2. order) :-0.8908117E-02  (-0.2035373E-03)
 number of electron     166.0000000 magnetization       0.0000000
 augmentation part        5.2596992 magnetization       0.0000042

 Broyden mixing:
  rms(total) = 0.88957E-02    rms(broyden)= 0.88955E-02
  rms(prec ) = 0.13206E-01
  weight for this iteration     100.00

 eigenvalues of (default mixing * dielectric matrix)
  average eigenvalue GAMMA=   1.7214
  6.2874  2.7729  2.7729  1.6108  1.5823  0.8715  0.8715  0.9932  0.9932  0.7886
  0.6264  0.4866

 Free energy of the ion-electron system (eV)
  ---------------------------------------------------
  alpha Z        PSCENC =        12.91687988
  Ewald energy   TEWEN  =     23316.77270552
  -Hartree energ DENC   =    -29164.88182709
  -exchange      EXHF   =         0.00000000
  -V(xc)+E(xc)   XCENC  =       424.36493844
  PAW double counting   =     81189.33100720   -81016.13532952
  entropy T*S    EENTRO =        -0.00000000
  eigenvalues    EBANDS =     -2732.78260409
  atomic energy  EATOM  =      7593.39991119
  ---------------------------------------------------
  free energy    TOTEN  =      -377.01431848 eV

  energy without entropy =     -377.01431848  energy(sigma->0) =     -377.01431848


--------------------------------------------------------------------------------------------------------




----------------------------------------- Iteration    1(  18)  ---------------------------------------


    POTLOK:  cpu time    4.73: real time    4.75
    SETDIJ:  cpu time    2.81: real time    2.81
     EDDAV:  cpu time   15.06: real time   16.35
       DOS:  cpu time    0.05: real time    0.05
    CHARGE:  cpu time    5.31: real time    5.32
    MIXING:  cpu time    0.20: real time    0.20
    --------------------------------------------
      LOOP:  cpu time   28.16: real time   29.49

 eigenvalue-minimisations  :   768
 total energy-change (2. order) :-0.4968337E-02  (-0.6738351E-04)
 number of electron     166.0000000 magnetization       0.0000000
 augmentation part        5.2608069 magnetization      -0.0000008

 Broyden mixing:
  rms(total) = 0.72023E-02    rms(broyden)= 0.72023E-02
  rms(prec ) = 0.95433E-02
  weight for this iteration     100.00

 eigenvalues of (default mixing * dielectric matrix)
[...]
 12.585   0.000  21.199   0.000   0.008   0.000  -0.006   0.000   0.009   0.000   0.015   0.000  -0.011   0.000   0.016   0.000
 21.199   0.000  35.706   0.000   0.014   0.000  -0.010   0.000   0.015   0.000   0.025   0.000  -0.018   0.000   0.027   0.000
  0.008   0.000   0.014   0.000  -3.551   0.000   0.001   0.000  -0.000   0.000  -6.382   0.000   0.002   0.000  -0.001   0.000
 -0.006   0.000  -0.010   0.000   0.001   0.000  -3.550   0.000   0.000   0.000   0.002   0.000  -6.381   0.000   0.000   0.000
  0.009   0.000   0.015   0.000  -0.000   0.000   0.000   0.000  -3.551   0.000  -0.001   0.000   0.000   0.000  -6.382   0.000
  0.015   0.000   0.025   0.000  -6.382   0.000   0.002   0.000  -0.001   0.000 -11.448   0.000   0.004   0.000  -0.002   0.000
 -0.011   0.000  -0.018   0.000   0.002   0.000  -6.381   0.000   0.000   0.000   0.004   0.000 -11.448   0.000   0.000   0.000
  0.016   0.000   0.027   0.000  -0.001   0.000   0.000   0.000  -6.382   0.000  -0.002   0.000   0.000   0.000 -11.449   0.000
 pseudopotential strength for first ion, spin component:           2
 12.585   0.000  21.199   0.000   0.008   0.000  -0.006   0.000   0.009   0.000   0.015   0.000  -0.011   0.000   0.016   0.000
 21.199   0.000  35.706   0.000   0.014   0.000  -0.010   0.000   0.015   0.000   0.025   0.000  -0.018   0.000   0.027   0.000
  0.008   0.000   0.014   0.000  -3.551   0.000   0.001   0.000  -0.000   0.000  -6.382   0.000   0.002   0.000  -0.001   0.000
 -0.006   0.000  -0.010   0.000   0.001   0.000  -3.550   0.000   0.000   0.000   0.002   0.000  -6.381   0.000   0.000   0.000
  0.009   0.000   0.015   0.000  -0.000   0.000   0.000   0.000  -3.551   0.000  -0.001   0.000   0.000   0.000  -6.382   0.000
  0.015   0.000   0.025   0.000  -6.382   0.000   0.002   0.000  -0.001   0.000 -11.448   0.000   0.004   0.000  -0.002   0.000
 -0.011   0.000  -0.018   0.000   0.002   0.000  -6.381   0.000   0.000   0.000   0.004   0.000 -11.448   0.000   0.000   0.000
  0.016   0.000   0.027   0.000  -0.001   0.000   0.000   0.000  -6.382   0.000  -0.002   0.000   0.000   0.000 -11.449   0.000
 total augmentation occupancy for first ion, spin component:           1
  1.576  -0.413   0.406  -0.220   0.786  -0.169   0.098  -0.305
 -0.413   0.571  -0.238   0.145  -0.395   0.081  -0.051   0.124
  0.406  -0.238   2.290  -1.444   0.499  -0.411   0.477  -0.197
 -0.220   0.145  -1.444   2.152   0.001   0.477  -0.344   0.058
  0.786  -0.395   0.499   0.001   2.713  -0.198   0.058  -0.442
 -0.169   0.081  -0.411   0.477  -0.198   0.208  -0.081   0.046
  0.098  -0.051   0.477  -0.344   0.058  -0.081   0.188  -0.043
 -0.305   0.124  -0.197   0.058  -0.442   0.046  -0.043   0.130
 total augmentation occupancy for first ion, spin component:           2
 -0.000   0.000  -0.000   0.000  -0.000   0.000  -0.000   0.000
  0.000  -0.000   0.000  -0.000   0.000  -0.000   0.000  -0.000
 -0.000   0.000  -0.000   0.000  -0.000   0.000  -0.000   0.000
  0.000  -0.000   0.000  -0.000  -0.000  -0.000   0.000  -0.000
 -0.000   0.000  -0.000  -0.000  -0.000   0.000   0.000   0.000
  0.000  -0.000   0.000  -0.000   0.000  -0.000   0.000  -0.000
 -0.000   0.000  -0.000   0.000   0.000   0.000  -0.000   0.000
  0.000  -0.000   0.000  -0.000   0.000  -0.000   0.000  -0.000


------------------------ aborting loop because EDIFF is reached ----------------------------------------


    CHARGE:  cpu time    5.19: real time    5.19
    FORLOC:  cpu time    0.56: real time    0.56
    FORNL :  cpu time   19.47: real time   19.66
    STRESS:  cpu time   61.12: real time   61.28
    FORCOR:  cpu time    4.32: real time    4.33
    FORHAR:  cpu time    0.99: real time    1.00
    MIXING:  cpu time    0.20: real time    0.20
    OFIELD:  cpu time    0.00: real time    0.00

  FORCE on cell =-STRESS in cart. coord.  units (eV):
  Direction    XX          YY          ZZ          XY          YZ          ZX
  --------------------------------------------------------------------------------------
  Alpha Z    12.91688    12.91688    12.91688
  Ewald   11153.20566  5633.80800  6529.74460   377.93245 -1627.78491   913.98718
  Hartree 12521.04331  7837.66274  8794.69666    95.44537 -1469.40777   727.82055
  E(xc)    -688.94488  -691.44190  -692.09886     1.42044    -0.22623     0.68144
  Local  -26047.69206-15875.05421-17748.00457  -451.45851  3091.24759 -1641.34252
  n-local   -28.39523   -28.09973   -31.76509     3.82169    -1.48599    -1.13708
  augment    83.46052    84.02708    82.76727     1.72853     0.05944     0.23450
  Kinetic  2979.61877  3012.08017  3037.31650   -28.79464     9.22323    -0.94803
  Fock        0.00000     0.00000     0.00000     0.00000     0.00000     0.00000
  -------------------------------------------------------------------------------------
  Total     -14.78703   -14.10096   -14.42660     0.09533     1.62536    -0.70397
  in kB      -2.96143    -2.82403    -2.88925     0.01909     0.32551    -0.14098
  external pressure =       -2.89 kB  Pullay stress =        0.00 kB


 VOLUME and BASIS-vectors are now :
 -----------------------------------------------------------------------------
  energy-cutoff  :      700.00
  volume of cell :     8000.00
      direct lattice vectors                 reciprocal lattice vectors
    20.000000000  0.000000000  0.000000000     0.050000000  0.000000000  0.000000000
     0.000000000 20.000000000  0.000000000     0.000000000  0.050000000  0.000000000
     0.000000000  0.000000000 20.000000000     0.000000000  0.000000000  0.050000000

  length of vectors
    20.000000000 20.000000000 20.000000000     0.050000000  0.050000000  0.050000000


 FORCES acting on ions
    electron-ion (+dipol)            ewald-force                    non-local-force                 convergence-correction
 -----------------------------------------------------------------------------------------------
   0.168E+03 0.287E+03 -.185E+03   -.174E+03 -.292E+03 0.189E+03   0.569E+01 0.488E+01 -.349E+01   -.572E-04 0.605E-04 -.564E-04
   0.878E+02 -.925E+01 0.333E+03   -.885E+02 0.955E+01 -.335E+03   0.668E+00 -.299E+00 0.189E+01   0.605E-05 -.705E-05 -.445E-04
   0.679E+02 0.800E+02 0.318E+03   -.701E+02 -.821E+02 -.325E+03   0.217E+01 0.208E+01 0.646E+01   0.189E-04 -.256E-04 0.690E-04
   0.377E+01 -.318E+03 0.300E+02   -.404E+01 0.325E+03 -.295E+02   0.282E+00 -.703E+01 -.477E+00   0.171E-04 -.795E-04 0.279E-04
   0.362E+02 -.325E+03 0.105E+03   -.366E+02 0.327E+03 -.106E+03   0.365E+00 -.183E+01 0.662E+00   0.180E-04 0.209E-04 -.266E-04
   0.804E+02 -.208E+03 0.263E+03   -.809E+02 0.209E+03 -.265E+03   0.539E+00 -.115E+01 0.142E+01   0.526E-05 0.526E-04 -.735E-04
   0.706E+02 0.274E+03 -.226E+03   -.697E+02 -.278E+03 0.230E+03   -.132E+01 0.438E+01 -.472E+01   -.313E-04 -.832E-04 0.595E-04
   0.323E+03 -.354E+02 -.116E+03   -.326E+03 0.352E+02 0.117E+03   0.242E+01 0.176E+00 -.270E+00   -.785E-05 0.101E-04 0.263E-04
   -.229E+03 0.121E+03 -.136E+03   0.236E+03 -.122E+03 0.139E+03   -.621E+01 0.353E+00 -.228E+01   -.212E-04 0.557E-04 -.664E-04
   -.261E+03 0.143E+03 -.182E+03   0.262E+03 -.144E+03 0.183E+03   -.186E+01 0.106E+01 -.162E+01   0.909E-04 -.275E-04 0.193E-04
   -.338E+03 -.698E+02 -.787E+00   0.340E+03 0.706E+02 0.594E+00   -.215E+01 -.693E+00 0.164E+00   0.694E-04 0.360E-04 -.157E-04
   -.258E+03 -.193E+03 0.137E+03   0.260E+03 0.194E+03 -.138E+03   -.151E+01 -.133E+01 0.851E+00   0.394E-04 0.495E-04 -.393E-04
   -.182E+03 -.214E+03 0.187E+03   0.185E+03 0.219E+03 -.191E+03   -.323E+01 -.523E+01 0.422E+01   -.466E-04 -.167E-04 -.905E-05
   -.266E+03 0.634E+02 -.921E+02   0.271E+03 -.644E+02 0.944E+02   -.533E+01 0.112E+01 -.230E+01   -.407E-04 0.361E-04 -.583E-04
   -.315E+03 0.608E+02 -.112E+03   0.318E+03 -.605E+02 0.112E+03   -.251E+01 -.404E+00 -.222E+00   0.135E-04 -.669E-05 -.181E-05
   -.125E+03 0.233E+03 -.240E+03   0.126E+03 -.235E+03 0.242E+03   -.165E+01 0.163E+01 -.207E+01   0.700E-04 -.923E-04 0.775E-04
   0.272E+03 -.304E+02 -.103E+03   -.277E+03 0.323E+02 0.106E+03   0.511E+01 -.187E+01 -.267E+01   0.740E-04 0.241E-04 -.243E-04
   0.127E+03 -.218E+03 -.261E+03   -.128E+03 0.220E+03 0.263E+03   0.707E+00 -.134E+01 -.160E+01   -.422E-04 0.627E-04 0.458E-04
   -.743E+02 -.256E+03 -.246E+03   0.746E+02 0.258E+03 0.247E+03   -.320E+00 -.151E+01 -.154E+01   -.287E-04 0.411E-04 0.135E-04
   -.158E+03 -.238E+03 -.196E+03   0.162E+03 0.243E+03 0.200E+03   -.399E+01 -.485E+01 -.417E+01   -.244E-04 -.342E-04 -.507E-04
   0.233E+03 -.973E+02 -.158E+03   -.239E+03 0.983E+02 0.160E+03   0.571E+01 -.996E+00 -.270E+01   0.327E-04 0.177E-05 -.464E-04
   0.265E+03 -.125E+03 -.200E+03   -.267E+03 0.126E+03 0.202E+03   0.130E+01 -.129E+01 -.180E+01   -.201E-04 0.256E-04 -.872E-05
   0.148E+03 0.264E+03 0.194E+03   -.152E+03 -.269E+03 -.198E+03   0.341E+01 0.485E+01 0.415E+01   0.369E-04 0.327E-04 -.107E-04
   0.242E+03 0.223E+03 0.144E+03   -.243E+03 -.224E+03 -.145E+03   0.163E+01 0.116E+01 0.861E+00   -.374E-04 -.488E-04 -.516E-04
   0.338E+03 0.953E+02 0.349E+01   -.340E+03 -.959E+02 -.367E+01   0.199E+01 0.516E+00 0.166E+00   -.625E-04 -.444E-04 0.559E-05
   0.452E+02 0.815E+02 -.646E+02   -.489E+02 -.854E+02 0.675E+02   0.364E+01 0.390E+01 -.298E+01   -.108E-05 -.235E-04 0.168E-04
   -.422E+02 0.697E+02 -.759E+02   0.446E+02 -.733E+02 0.801E+02   -.247E+01 0.362E+01 -.420E+01   0.165E-04 -.311E-04 0.258E-04
   -.996E+02 0.278E+02 -.486E+02   0.105E+03 -.275E+02 0.498E+02   -.589E+01 -.268E+00 -.125E+01   0.183E-04 -.123E-04 0.708E-05
   -.409E+02 0.149E+03 0.164E+02   0.426E+02 -.157E+03 -.131E+02   -.179E+01 0.756E+01 -.334E+01   -.118E-04 0.366E-04 -.133E-05
   0.101E+03 -.226E+02 -.517E+02   -.107E+03 0.222E+02 0.530E+02   0.582E+01 0.407E+00 -.121E+01   -.980E-05 0.120E-04 0.995E-05
   0.867E+02 0.679E+02 -.301E+02   -.918E+02 -.680E+02 0.289E+02   0.616E+01 0.115E+00 0.142E+01   -.382E-05 0.137E-04 -.128E-04
   0.266E+02 -.664E+02 0.814E+02   -.282E+02 0.701E+02 -.858E+02   0.154E+01 -.372E+01 0.448E+01   -.371E-05 0.258E-04 -.347E-04
   0.592E+01 -.110E+03 0.888E+01   -.588E+01 0.116E+03 -.781E+01   -.332E-01 -.588E+01 -.107E+01   0.196E-05 0.272E-04 -.121E-04
   -.142E+02 -.101E+03 -.343E+02   0.157E+02 0.104E+03 0.397E+02   -.154E+01 -.210E+01 -.539E+01   0.195E-06 -.186E-04 0.182E-05
   -.101E+03 0.257E+02 0.116E+03   0.108E+03 -.235E+02 -.121E+03   -.651E+01 -.229E+01 0.485E+01   -.212E-04 0.129E-04 0.225E-04
   -.916E+02 0.384E+02 -.535E+02   0.950E+02 -.416E+02 0.572E+02   -.331E+01 0.323E+01 -.375E+01   0.141E-04 -.296E-05 0.872E-06
   -.661E+02 -.714E+02 0.547E+02   0.685E+02 0.757E+02 -.582E+02   -.246E+01 -.427E+01 0.346E+01   0.178E-04 0.124E-04 -.952E-05
   0.175E+02 0.709E+02 0.886E+02   -.175E+02 -.769E+02 -.893E+02   0.507E-01 0.596E+01 0.732E+00   0.273E-05 -.120E-05 0.119E-04
   0.433E+01 0.904E+02 0.777E+02   -.745E+00 -.934E+02 -.814E+02   -.358E+01 0.300E+01 0.376E+01   0.472E-06 0.547E-05 -.298E-05
   0.604E+02 0.771E+02 0.572E+02   -.627E+02 -.813E+02 -.608E+02   0.229E+01 0.426E+01 0.357E+01   -.191E-04 -.180E-04 -.154E-04
   -.105E+03 -.197E+02 -.448E+01   0.111E+03 0.207E+02 0.495E+01   -.594E+01 -.955E+00 -.463E+00   0.306E-04 0.125E-04 -.502E-05
   -.837E+02 -.643E+02 -.381E+02   0.896E+02 0.645E+02 0.368E+02   -.588E+01 -.259E+00 0.130E+01   -.101E-04 -.103E-04 -.113E-04
   0.286E+02 0.211E+02 0.104E+03   -.301E+02 -.235E+02 -.109E+03   0.153E+01 0.241E+01 0.526E+01   -.379E-05 -.856E-06 -.314E-04
   -.453E+02 -.785E+02 -.699E+02   0.489E+02 0.822E+02 0.729E+02   -.358E+01 -.374E+01 -.304E+01   -.725E-05 0.200E-04 0.159E-04
   0.947E+02 -.332E+02 -.542E+02   -.982E+02 0.363E+02 0.580E+02   0.345E+01 -.312E+01 -.372E+01   -.136E-04 0.290E-05 0.105E-04
   0.106E+03 0.252E+02 -.233E+01   -.111E+03 -.263E+02 0.263E+01   0.592E+01 0.108E+01 -.303E+00   -.321E-04 -.172E-04 0.220E-05
   -.229E+02 -.759E+02 0.739E+02   0.194E+02 0.791E+02 -.777E+02   0.345E+01 -.319E+01 0.380E+01   -.471E-06 -.690E-05 0.194E-05
   0.432E+02 -.659E+02 -.805E+02   -.457E+02 0.694E+02 0.848E+02   0.248E+01 -.343E+01 -.430E+01   -.134E-04 0.229E-04 0.239E-04
   0.308E+02 -.139E+03 0.222E+03   -.260E+02 0.127E+03 -.208E+03   -.477E+01 0.118E+02 -.144E+02   0.333E-04 -.112E-03 0.127E-03
   0.233E+03 0.162E+03 0.637E+02   -.214E+03 -.158E+03 -.655E+02   -.194E+02 -.348E+01 0.179E+01   0.131E-03 0.723E-04 -.175E-04
   -.502E+02 0.225E+03 -.154E+03   0.433E+02 -.209E+03 0.136E+03   0.641E+01 -.165E+02 0.176E+02   -.638E-04 0.151E-03 -.144E-03
   0.389E+02 -.198E+03 -.196E+03   -.315E+02 0.189E+03 0.184E+03   -.748E+01 0.908E+01 0.124E+02   0.307E-04 -.891E-04 -.122E-03
   -.254E+03 -.966E+02 0.685E+02   0.233E+03 0.944E+02 -.705E+02   0.208E+02 0.220E+01 0.205E+01   -.119E-03 -.286E-04 -.335E-04
   -.123E+03 0.403E+03 0.424E+03   0.837E+02 -.386E+03 -.427E+03   0.396E+02 -.173E+02 0.277E+01   -.435E-04 0.178E-03 0.128E-03
   -.747E+02 0.123E+03 0.235E+03   0.731E+02 -.120E+03 -.232E+03   0.175E+01 -.361E+01 -.341E+01   -.168E-04 0.518E-04 -.734E-04
 -----------------------------------------------------------------------------------------------
   -.322E+02 0.231E+02 -.534E+01   -.156E-12 0.853E-13 -.313E-12   0.322E+02 -.231E+02 0.534E+01   -.256E-04 0.328E-03 -.359E-03
 
 
 POSITION                                       TOTAL-FORCE (eV/Angst)
 -----------------------------------------------------------------------------------
      9.94203      7.43809     12.52376         0.020519     -0.448940      0.470763
      8.75875     11.31222      6.55140        -0.000281     -0.006265      0.006937
      9.11624     10.48468      7.61029         0.000599     -0.068702      0.012149
      9.47459     12.30603      8.99730         0.017063      0.015232      0.051600
      9.11904     13.19266      7.98704         0.003466     -0.001133      0.008478
      8.75715     12.69444      6.73519         0.002754     -0.004504      0.008354
     10.46158      6.59100     13.49490        -0.400808      0.660621     -0.744234
      5.86694      9.53439     11.36602         0.000558      0.013104      0.013357
     12.04547      8.38666     12.11872         0.018474      0.005654     -0.010014
     12.61928      7.55238     13.08448        -0.124564     -0.102364      0.070119
     14.79299     10.57118     10.69264         0.014631      0.034108     -0.029361
     14.01643     11.32257      9.80881         0.056922     -0.030254      0.044134
     12.65158     11.07272      9.73048        -0.095721     -0.034718      0.013326
     12.79043      9.38554     11.34657        -0.040471      0.073126     -0.079889
     14.16878      9.59490     11.46294        -0.031613     -0.078895      0.071209
     11.82695      6.64488     13.78060         0.090374      0.050120     -0.033099
      7.24231      9.77330     11.28348        -0.019028      0.013501     -0.004845
      8.15819     12.44233     13.81164         0.022903     -0.005848     -0.015913
      9.52399     12.52132     13.53212         0.000169      0.011672      0.018396
     10.05904     11.71816     12.53361         0.008487     -0.023656     -0.036989
      7.96508     10.76003     12.08522         0.024813      0.010203     -0.017512
      7.38092     11.55121     13.07965        -0.016484     -0.008392     -0.005249
      7.45796      8.11597      9.64469         0.024331     -0.027855     -0.022376
      6.09730      7.83470      9.68863        -0.021796     -0.008853      0.000622
      5.28440      8.55710     10.56432         0.011207     -0.008627     -0.013028
      9.79795      5.90212     14.01497        -0.117465      0.056440     -0.084227
     12.26685      5.99367     14.53463        -0.073867     -0.017974      0.000170
     13.68484      7.61538     13.29576         0.001928     -0.002402      0.009846
     10.84507      7.24677      9.22597        -0.001349     -0.008020     -0.078789
      6.31582     11.46138     13.28407        -0.002101      0.008723     -0.000784
      8.88327      7.42377     12.27295         1.150099      0.028591      0.258765
      8.47853     13.36665      5.92453        -0.003078      0.005198     -0.001503
      9.12855     14.26265      8.19005         0.004837     -0.001339      0.003849
      9.76183     12.67176      9.98145        -0.000122      0.016651     -0.007350
     11.38256      8.36174      8.29610         0.005276     -0.007277     -0.049676
     14.75349      8.99278     12.15530         0.036511      0.010108     -0.001103
     14.45552     12.09620      9.18096         0.008467      0.003726     -0.005589
      9.11405      9.40258      7.49376        -0.010717     -0.000822     -0.017583
      8.12287      7.57771      8.97051        -0.003283     -0.003482     -0.018448
      5.68876      7.06123      9.04041        -0.000928     -0.005381     -0.004779
     15.86530     10.74076     10.77851        -0.000029     -0.002616      0.005110
     11.11794     11.75383     12.28812         0.006444      0.016256      0.001816
      8.48240     10.86572      5.59722        -0.003561     -0.004104      0.006704
     10.17895     13.19691     14.08003         0.002063      0.004860     -0.001211
      5.25320     10.11370     12.05309        -0.004425     -0.000078     -0.003467
      4.21445      8.36275     10.62101        -0.006622     -0.000076     -0.003383
     12.01813     11.63958      9.05085        -0.000464     -0.003440     -0.000075
      7.70887     13.05934     14.58823        -0.003777      0.008727      0.006155
      9.48490     10.95884      8.82805         0.003040      0.031311      0.018522
      8.03610      9.06122     10.42169        -0.091228     -0.057243      0.036532
     10.70414      8.32170     11.83465        -0.524634     -0.010869     -0.067338
      9.30896     10.85100     11.80824        -0.101621      0.142331      0.145219
     12.02768     10.13012     10.47953         0.013478      0.022170     -0.028317
     10.61480      8.11252      8.84309         0.003332      0.037340      0.050119
     10.01771      9.61740     10.38685         0.147293     -0.295642      0.053877
 -----------------------------------------------------------------------------------
    total drift:                                0.006420     -0.003497      0.002937


--------------------------------------------------------------------------------------------------------



  FREE ENERGIE OF THE ION-ELECTRON SYSTEM (eV)
  ---------------------------------------------------
  free  energy   TOTEN  =      -377.03150481 eV

  energy  without entropy=     -377.03150481  energy(sigma->0) =     -377.03150481
 


--------------------------------------------------------------------------------------------------------


    POTLOK:  cpu time    7.45: real time    7.49


--------------------------------------------------------------------------------------------------------


 writing wavefunctions
     LOOP+:  cpu time 1001.36: real time 1039.59
    4ORBIT:  cpu time    0.00: real time    0.00

 total amount of memory used by VASP on root node   877132. kBytes
========================================================================

   base      :      30000. kBytes
   nonlr-proj:      19361. kBytes
   fftplans  :     269516. kBytes
   grid      :     534988. kBytes
   one-center:       1710. kBytes
   wavefun   :      21557. kBytes
 
  
  
 General timing and accounting informations for this job:
 ========================================================
  
                  Total CPU time used (sec):     1256.048
                            User time (sec):     1111.363
                          System time (sec):      144.685
                         Elapsed time (sec):     1300.461
  
                   Maximum memory used (kb):     1490220.
                   Average memory used (kb):           0.
  
                          Minor page faults:      6844620
                          Major page faults:            2
                 Voluntary context switches:       270557
