<?xml version="1.0" encoding="ISO-8859-1"?>
<modeling>
 <generator>
  <i name="program" type="string">vasp </i>
  <i name="version" type="string">5.3.5  </i>
  <i name="subversion" type="string">31Mar14 (build Apr 08 2014 12:00:03) complex                          parallel </i>
  <i name="platform" type="string">NSC-NSCPATCH-BUILD02 </i>
  <i name="date" type="string">2017 03 15 </i>
  <i name="time" type="string">18:38:26 </i>
 </generator>
 <incar>
  <i type="string" name="SYSTEM"> c2_oh2_ruthenium_mol</i>
  <i type="int" name="ISTART">     0</i>
  <i type="string" name="PREC">accurate</i>
  <i type="int" name="IALGO">    38</i>
  <i type="logical" name="ADDGRID"> T  </i>
  <i type="int" name="ISPIN">     2</i>
  <i name="BMIX">      2.00000000</i>
  <i type="int" name="ICHARG">     2</i>
  <i name="EDIFF">      0.00001000</i>
  <i name="EDIFFG">     -0.01000000</i>
  <i name="ENCUT">    700.00000000</i>
  <i name="POTIM">      0.50000000</i>
  <i name="NUPDOWN">      0.00000000</i>
  <i name="NELECT">    166.00000000</i>
  <i type="string" name="LREAL"> Auto</i>
  <i name="TIME">      0.05000000</i>
  <i type="int" name="ISMEAR">     0</i>
  <i name="SIGMA">      0.01000000</i>
  <i type="int" name="ICORELEVEL">     2</i>
  <i type="int" name="CLNT">     1</i>
  <i type="int" name="CLN">     1</i>
  <i type="int" name="INCAR     ">     0</i>
  <i name="CLZ">      0.50000000</i>
 </incar>
 <kpoints>
  <generation param="Monkhorst-Pack">
   <v type="int" name="divisions">       1        1        1 </v>
   <v name="usershift">      0.00000000       0.00000000       0.00000000 </v>
   <v name="genvec1">      1.00000000       0.00000000       0.00000000 </v>
   <v name="genvec2">      0.00000000       1.00000000       0.00000000 </v>
   <v name="genvec3">      0.00000000       0.00000000       1.00000000 </v>
   <v name="shift">      0.00000000       0.00000000       0.00000000 </v>
  </generation>
  <varray name="kpointlist" >
   <v>       0.00000000       0.00000000       0.00000000 </v>
  </varray>
  <varray name="weights" >
   <v>       1.00000000 </v>
  </varray>
 </kpoints>
 <parameters>
  <separator name="general" >
   <i type="string" name="SYSTEM">c2_oh2_ruthenium_mol</i>
   <i type="logical" name="LCOMPAT"> F  </i>
  </separator>
  <separator name="electronic" >
   <i type="string" name="PREC">accura</i>
   <i name="ENMAX">    700.00000000</i>
   <i name="ENAUG">    946.76800000</i>
   <i name="EDIFF">      0.00001000</i>
   <i type="int" name="IALGO">    38</i>
   <i type="int" name="IWAVPR">    10</i>
   <i type="int" name="NBANDS">   128</i>
   <i name="NELECT">    166.00000000</i>
   <i type="int" name="TURBO">     0</i>
   <i type="int" name="IRESTART">     0</i>
   <i type="int" name="NREBOOT">     0</i>
   <i type="int" name="NMIN">     0</i>
   <i name="EREF">      0.00000000</i>
   <separator name="electronic smearing" >
    <i type="int" name="ISMEAR">     0</i>
    <i name="SIGMA">      0.01000000</i>
    <i name="KSPACING">      0.50000000</i>
    <i type="logical" name="KGAMMA"> T  </i>
   </separator>
   <separator name="electronic projectors" >
    <i type="logical" name="LREAL"> T  </i>
    <v name="ROPT">     -0.00025000     -0.00025000     -0.00025000     -0.00025000     -0.00025000     -0.00025000</v>
    <i type="int" name="LMAXPAW">  -100</i>
    <i type="int" name="LMAXMIX">     2</i>
    <i type="logical" name="NLSPLINE"> F  </i>
   </separator>
   <separator name="electronic startup" >
    <i type="int" name="ISTART">     0</i>
    <i type="int" name="ICHARG">     2</i>
    <i type="int" name="INIWAV">     1</i>
   </separator>
   <separator name="electronic spin" >
    <i type="int" name="ISPIN">     2</i>
    <i type="logical" name="LNONCOLLINEAR"> F  </i>
    <v name="MAGMOM">      0.00000000      0.00000000      0.00000000      0.00000000      0.00000000      0.00000000      0.00000000      0.00000000      0.00000000      0.00000000      0.00000000      0.00000000      0.00000000      0.00000000      0.00000000      0.00000000      0.00000000      0.00000000      0.00000000      0.00000000
      0.00000000      0.00000000      0.00000000      0.00000000      0.00000000      0.00000000      0.00000000      0.00000000      0.00000000      0.00000000      0.00000000      0.00000000      0.00000000      0.00000000      0.00000000      0.00000000      0.00000000      0.00000000      0.00000000      0.00000000
      0.00000000      0.00000000      0.00000000      0.00000000      0.00000000      0.00000000      0.00000000      0.00000000      0.00000000      0.00000000      0.00000000      0.00000000      0.00000000      0.00000000      0.00000000</v>
    <i name="NUPDOWN">      0.00000000</i>
    <i type="logical" name="LSORBIT"> F  </i>
    <v name="SAXIS">      0.00000000      0.00000000      1.00000000</v>
    <i type="logical" name="LSPIRAL"> F  </i>
    <v name="QSPIRAL">      0.00000000      0.00000000      0.00000000</v>
    <i type="logical" name="LZEROZ"> F  </i>
   </separator>
   <separator name="electronic exchange-correlation" >
    <i type="logical" name="LASPH"> F  </i>
    <i type="logical" name="LMETAGGA"> F  </i>
   </separator>
   <separator name="electronic convergence" >
    <i type="int" name="NELM">    60</i>
    <i type="int" name="NELMDL">    -5</i>
    <i type="int" name="NELMIN">     2</i>
    <i name="ENINI">    700.00000000</i>
    <separator name="electronic convergence detail" >
     <i type="logical" name="LDIAG"> T  </i>
     <i type="logical" name="LSUBROT"> F  </i>
     <i name="WEIMIN">      0.00000000</i>
     <i name="EBREAK">      0.00000002</i>
     <i name="DEPER">      0.30000000</i>
     <i type="int" name="NRMM">     4</i>
     <i name="TIME">      0.05000000</i>
    </separator>
   </separator>
   <separator name="electronic mixer" >
    <i name="AMIX">      0.40000000</i>
    <i name="BMIX">      2.00000000</i>
    <i name="AMIN">      0.10000000</i>
    <i name="AMIX_MAG">      1.60000000</i>
    <i name="BMIX_MAG">      2.00000000</i>
    <separator name="electronic mixer details" >
     <i type="int" name="IMIX">     4</i>
     <i type="int" name="MAXMIX">   -45</i>
     <i name="WC">    100.00000000</i>
     <i type="int" name="INIMIX">     1</i>
     <i type="int" name="MIXPRE">     1</i>
     <i type="int" name="MREMOVE">     5</i>
    </separator>
   </separator>
   <separator name="electronic dipolcorrection" >
    <i type="logical" name="LDIPOL"> F  </i>
    <i type="logical" name="LMONO"> F  </i>
    <i type="int" name="IDIPOL">     0</i>
    <i name="EPSILON">      1.00000000</i>
    <v name="DIPOL">   -100.00000000   -100.00000000   -100.00000000</v>
    <i name="EFIELD">      0.00000000</i>
   </separator>
  </separator>
  <separator name="grids" >
   <i type="int" name="NGX">   180</i>
   <i type="int" name="NGY">   180</i>
   <i type="int" name="NGZ">   180</i>
   <i type="int" name="NGXF">   360</i>
   <i type="int" name="NGYF">   360</i>
   <i type="int" name="NGZF">   360</i>
   <i type="logical" name="ADDGRID"> T  </i>
  </separator>
  <separator name="ionic" >
   <i type="int" name="NSW">     0</i>
   <i type="int" name="IBRION">    -1</i>
   <i type="int" name="ISIF">     2</i>
   <i name="PSTRESS">      0.00000000</i>
   <i name="EDIFFG">     -0.01000000</i>
   <i type="int" name="NFREE">     0</i>
   <i name="POTIM">      0.50000000</i>
   <i name="SMASS">     -3.00000000</i>
   <i name="SCALEE">      1.00000000</i>
  </separator>
  <separator name="ionic md" >
   <i name="TEBEG">      0.00010000</i>
   <i name="TEEND">      0.00010000</i>
   <i type="int" name="NBLOCK">     1</i>
   <i type="int" name="KBLOCK">     1</i>
   <i type="int" name="NPACO">   256</i>
   <i name="APACO">     16.00000000</i>
  </separator>
  <separator name="symmetry" >
   <i type="int" name="ISYM">     2</i>
   <i name="SYMPREC">      0.00001000</i>
  </separator>
  <separator name="dos" >
   <i type="logical" name="LORBIT"> F  </i>
   <v name="RWIGS">     -1.00000000     -1.00000000     -1.00000000     -1.00000000     -1.00000000     -1.00000000</v>
   <i type="int" name="NEDOS">   301</i>
   <i name="EMIN">     10.00000000</i>
   <i name="EMAX">    -10.00000000</i>
   <i name="EFERMI">      0.00000000</i>
  </separator>
  <separator name="writing" >
   <i type="int" name="NWRITE">     2</i>
   <i type="logical" name="LWAVE"> T  </i>
   <i type="logical" name="LCHARG"> T  </i>
   <i type="logical" name="LPARD"> F  </i>
   <i type="logical" name="LVTOT"> F  </i>
   <i type="logical" name="LVHAR"> F  </i>
   <i type="logical" name="LELF"> F  </i>
   <i type="logical" name="LOPTICS"> F  </i>
   <v name="STM">      0.00000000      0.00000000      0.00000000      0.00000000      0.00000000      0.00000000      0.00000000</v>
  </separator>
  <separator name="performance" >
   <i type="int" name="NPAR">    64</i>
   <i type="int" name="NSIM">     4</i>
   <i type="int" name="NBLK">    -1</i>
   <i type="logical" name="LPLANE"> T  </i>
   <i type="logical" name="LSCALAPACK"> T  </i>
   <i type="logical" name="LSCAAWARE"> F  </i>
   <i type="logical" name="LSCALU"> F  </i>
   <i type="logical" name="LASYNC"> F  </i>
   <i type="logical" name="LORBITALREAL"> F  </i>
  </separator>
  <separator name="miscellaneous" >
   <i type="int" name="IDIOT">     3</i>
   <i type="logical" name="LMUSIC"> F  </i>
   <v name="POMASS">     12.01100000     12.01100000      1.00000000     14.00100000     16.00000000    101.07000000</v>
   <v name="DARWINR">      0.00000000      0.00000000      0.00000000      0.00000000      0.00000000      0.00000000</v>
   <v name="DARWINV">      1.00000000      1.00000000      1.00000000      1.00000000      1.00000000      1.00000000</v>
   <i type="logical" name="LCORR"> T  </i>
  </separator>
  <i type="logical" name="GGA_COMPAT"> T  </i>
  <i type="logical" name="LBERRY"> F  </i>
  <i type="int" name="ICORELEVEL">     2</i>
  <i type="int" name="CLNT">     1</i>
  <i type="int" name="CLN">     1</i>
  <i type="int" name="CLL">     0</i>
  <i name="CLZ">      0.50000000</i>
  <i type="logical" name="LDAU"> F  </i>
  <i type="int" name="I_CONSTRAINED_M">     0</i>
  <separator name="electronic exchange-correlation" >
   <i type="string" name="GGA">--</i>
   <i type="int" name="VOSKOWN">     0</i>
   <i type="logical" name="LHFCALC"> F  </i>
   <i type="string" name="PRECFOCK"></i>
   <i type="logical" name="LSYMGRAD"> F  </i>
   <i type="logical" name="LHFONE"> F  </i>
   <i type="logical" name="LRHFCALC"> F  </i>
   <i type="logical" name="LTHOMAS"> F  </i>
   <i type="logical" name="LMODELHF"> F  </i>
   <i name="ENCUT4O">     -1.00000000</i>
   <i type="int" name="EXXOEP">     0</i>
   <i type="int" name="FOURORBIT">     0</i>
   <i name="AEXX">      0.00000000</i>
   <i name="HFALPHA">      0.00000000</i>
   <i name="MCALPHA">      0.00000000</i>
   <i name="ALDAX">      1.00000000</i>
   <i name="AGGAX">      1.00000000</i>
   <i name="ALDAC">      1.00000000</i>
   <i name="AGGAC">      1.00000000</i>
   <i type="int" name="NKREDX">     1</i>
   <i type="int" name="NKREDY">     1</i>
   <i type="int" name="NKREDZ">     1</i>
   <i type="logical" name="SHIFTRED"> F  </i>
   <i type="logical" name="ODDONLY"> F  </i>
   <i type="logical" name="EVENONLY"> F  </i>
   <i type="int" name="LMAXFOCK">     0</i>
   <i type="int" name="NMAXFOCKAE">     0</i>
   <i type="logical" name="LFOCKAEDFT"> F  </i>
   <i name="HFSCREEN">      0.00000000</i>
   <i name="HFSCREENC">      0.00000000</i>
   <i type="int" name="NBANDSGWLOW">     0</i>
  </separator>
  <separator name="vdW DFT" >
   <i type="logical" name="LUSE_VDW"> F  </i>
   <i name="Zab_VDW">     -0.84910000</i>
   <i name="PARAM1">      0.12340000</i>
   <i name="PARAM2">      1.00000000</i>
   <i name="PARAM3">      0.00000000</i>
  </separator>
  <separator name="model GW" >
   <i type="int" name="MODEL_GW">     0</i>
   <i name="MODEL_EPS0">     87.27272727</i>
   <i name="MODEL_ALPHA">      1.00000000</i>
  </separator>
  <separator name="linear response parameters" >
   <i type="logical" name="LEPSILON"> F  </i>
   <i type="logical" name="LRPA"> F  </i>
   <i type="logical" name="LNABLA"> F  </i>
   <i type="logical" name="LVEL"> F  </i>
   <i type="int" name="KINTER">     0</i>
   <i name="CSHIFT">      0.10000000</i>
   <i name="OMEGAMAX">     -1.00000000</i>
   <i name="DEG_THRESHOLD">      0.00200000</i>
  </separator>
  <separator name="orbital magnetization" >
   <i type="logical" name="NUCIND"> F  </i>
   <v name="MAGPOS">      0.00000000      0.00000000      0.00000000</v>
   <i type="logical" name="LNICSALL"> T  </i>
   <i type="logical" name="ORBITALMAG"> F  </i>
   <i type="logical" name="LMAGBLOCH"> F  </i>
   <i type="logical" name="LCHIMAG"> F  </i>
   <i type="logical" name="LGAUGE"> T  </i>
   <i type="int" name="MAGATOM">     0</i>
   <v name="MAGDIPOL">      0.00000000      0.00000000      0.00000000</v>
   <v name="AVECCONST">      0.00000000      0.00000000      0.00000000</v>
  </separator>
  <separator name="response functions" >
   <i type="logical" name="LADDER"> F  </i>
   <i type="logical" name="LFXC"> F  </i>
   <i type="logical" name="LHARTREE"> T  </i>
   <i type="int" name="IBSE">     0</i>
   <i type="logical" name="LTCTE"> F  </i>
   <i type="logical" name="LTETE"> F  </i>
   <i type="logical" name="LTRIPLET"> F  </i>
   <i type="logical" name="LFXCEPS"> F  </i>
   <i type="logical" name="LFXHEG"> F  </i>
   <i type="logical" name="L2ORDER"> F  </i>
   <i type="logical" name="LUSEW"> F  </i>
   <i name="ENCUTGW">     -2.00000000</i>
   <i name="ENCUTGWSOFT">     -2.00000000</i>
   <i name="ENCUTLF">     -1.00000000</i>
   <i type="int" name="LMAXMP2">    -1</i>
   <i name="SCISSOR">      0.00000000</i>
   <i type="int" name="NOMEGA">     0</i>
   <i type="int" name="NOMEGAR">     0</i>
   <i type="int" name="NBANDSGW">    -1</i>
   <i type="int" name="NBANDSO">    -1</i>
   <i type="int" name="NBANDSV">    -1</i>
   <i type="int" name="NELM">     1</i>
   <i type="int" name="DIM">     3</i>
   <i type="int" name="ANTIRES">     0</i>
   <i name="OMEGAMAX">    -30.00000000</i>
   <i name="OMEGAMIN">    -30.00000000</i>
   <i name="OMEGATL">   -200.00000000</i>
   <i type="int" name="OMEGAGRID">     0</i>
   <i name="CSHIFT">     -0.10000000</i>
   <i type="logical" name="SELFENERGY"> F  </i>
   <i type="logical" name="LSPECTRAL"> F  </i>
   <i type="logical" name="ODDONLYGW"> F  </i>
   <i type="logical" name="EVENONLYGW"> F  </i>
   <i type="int" name="NKREDLFX">     1</i>
   <i type="int" name="NKREDLFY">     1</i>
   <i type="int" name="NKREDLFZ">     1</i>
   <i type="int" name="MAXMEM">  1800</i>
   <i type="int" name="TELESCOPE">     0</i>
   <i type="int" name="TAUPAR">     1</i>
  </separator>
  <separator name="External order field" >
   <i name="OFIELD_KAPPA">      0.00000000</i>
   <v name="OFIELD_K">      0.00000000      0.00000000      0.00000000</v>
   <i name="OFIELD_Q6_NEAR">      0.00000000</i>
   <i name="OFIELD_Q6_FAR">      0.00000000</i>
   <i name="OFIELD_A">      0.00000000</i>
  </separator>
 </parameters>
 <atominfo>
  <atoms>      55 </atoms>
  <types>       6 </types>
  <array name="atoms" >
   <dimension dim="1">ion</dimension>
   <field type="string">element</field>
   <field type="int">atomtype</field>
   <set>
    <rc><c>C </c><c>   1</c></rc>
    <rc><c>C </c><c>   2</c></rc>
    <rc><c>C </c><c>   2</c></rc>
    <rc><c>C </c><c>   2</c></rc>
    <rc><c>C </c><c>   2</c></rc>
    <rc><c>C </c><c>   2</c></rc>
    <rc><c>C </c><c>   2</c></rc>
    <rc><c>C </c><c>   2</c></rc>
    <rc><c>C </c><c>   2</c></rc>
    <rc><c>C </c><c>   2</c></rc>
    <rc><c>C </c><c>   2</c></rc>
    <rc><c>C </c><c>   2</c></rc>
    <rc><c>C </c><c>   2</c></rc>
    <rc><c>C </c><c>   2</c></rc>
    <rc><c>C </c><c>   2</c></rc>
    <rc><c>C </c><c>   2</c></rc>
    <rc><c>C </c><c>   2</c></rc>
    <rc><c>C </c><c>   2</c></rc>
    <rc><c>C </c><c>   2</c></rc>
    <rc><c>C </c><c>   2</c></rc>
    <rc><c>C </c><c>   2</c></rc>
    <rc><c>C </c><c>   2</c></rc>
    <rc><c>C </c><c>   2</c></rc>
    <rc><c>C </c><c>   2</c></rc>
    <rc><c>C </c><c>   2</c></rc>
    <rc><c>H </c><c>   3</c></rc>
    <rc><c>H </c><c>   3</c></rc>
    <rc><c>H </c><c>   3</c></rc>
    <rc><c>H </c><c>   3</c></rc>
    <rc><c>H </c><c>   3</c></rc>
    <rc><c>H </c><c>   3</c></rc>
    <rc><c>H </c><c>   3</c></rc>
    <rc><c>H </c><c>   3</c></rc>
    <rc><c>H </c><c>   3</c></rc>
    <rc><c>H </c><c>   3</c></rc>
    <rc><c>H </c><c>   3</c></rc>
    <rc><c>H </c><c>   3</c></rc>
    <rc><c>H </c><c>   3</c></rc>
    <rc><c>H </c><c>   3</c></rc>
    <rc><c>H </c><c>   3</c></rc>
    <rc><c>H </c><c>   3</c></rc>
    <rc><c>H </c><c>   3</c></rc>
    <rc><c>H </c><c>   3</c></rc>
    <rc><c>H </c><c>   3</c></rc>
    <rc><c>H </c><c>   3</c></rc>
    <rc><c>H </c><c>   3</c></rc>
    <rc><c>H </c><c>   3</c></rc>
    <rc><c>H </c><c>   3</c></rc>
    <rc><c>N </c><c>   4</c></rc>
    <rc><c>N </c><c>   4</c></rc>
    <rc><c>N </c><c>   4</c></rc>
    <rc><c>N </c><c>   4</c></rc>
    <rc><c>N </c><c>   4</c></rc>
    <rc><c>O </c><c>   5</c></rc>
    <rc><c>Ru</c><c>   6</c></rc>
   </set>
  </array>
  <array name="atomtypes" >
   <dimension dim="1">type</dimension>
   <field type="int">atomspertype</field>
   <field type="string">element</field>
   <field>mass</field>
   <field>valence</field>
   <field type="string">pseudopotential</field>
   <set>
    <rc><c>   1</c><c>C </c><c>     12.01100000</c><c>      4.50000000</c><c>  PAW_PBE C_h 06Feb2004                 </c></rc>
    <rc><c>  24</c><c>C </c><c>     12.01100000</c><c>      4.00000000</c><c>  PAW_PBE C_h 06Feb2004                 </c></rc>
    <rc><c>  23</c><c>H </c><c>      1.00000000</c><c>      1.00000000</c><c>  PAW_PBE H 15Jun2001                   </c></rc>
    <rc><c>   5</c><c>N </c><c>     14.00100000</c><c>      5.00000000</c><c>  PAW_PBE N_h 06Feb2004                 </c></rc>
    <rc><c>   1</c><c>O </c><c>     16.00000000</c><c>      6.00000000</c><c>  PAW_PBE O_h 06Feb2004                 </c></rc>
    <rc><c>   1</c><c>Ru</c><c>    101.07000000</c><c>     14.00000000</c><c>  PAW_PBE Ru_pv 28Jan2005               </c></rc>
   </set>
  </array>
 </atominfo>
 <structure name="initialpos" >
  <crystal>
   <varray name="basis" >
    <v>      20.00000000       0.00000000       0.00000000 </v>
    <v>       0.00000000      20.00000000       0.00000000 </v>
    <v>       0.00000000       0.00000000      20.00000000 </v>
   </varray>
   <i name="volume">   8000.00000000 </i>
   <varray name="rec_basis" >
    <v>       0.05000000       0.00000000       0.00000000 </v>
    <v>       0.00000000       0.05000000       0.00000000 </v>
    <v>       0.00000000       0.00000000       0.05000000 </v>
   </varray>
  </crystal>
  <varray name="positions" >
   <v>       0.49710163       0.37190466       0.62618823 </v>
   <v>       0.43793752       0.56561110       0.32757008 </v>
   <v>       0.45581208       0.52423376       0.38051465 </v>
   <v>       0.47372925       0.61530131       0.44986522 </v>
   <v>       0.45595175       0.65963312       0.39935201 </v>
   <v>       0.43785737       0.63472201       0.33675972 </v>
   <v>       0.52307882       0.32955005       0.67474498 </v>
   <v>       0.29334713       0.47671938       0.56830116 </v>
   <v>       0.60227374       0.41933300       0.60593616 </v>
   <v>       0.63096398       0.37761922       0.65422416 </v>
   <v>       0.73964927       0.52855915       0.53463181 </v>
   <v>       0.70082162       0.56612858       0.49044049 </v>
   <v>       0.63257913       0.55363620       0.48652424 </v>
   <v>       0.63952130       0.46927713       0.56732841 </v>
   <v>       0.70843899       0.47974495       0.57314689 </v>
   <v>       0.59134754       0.33224398       0.68903016 </v>
   <v>       0.36211554       0.48866484       0.56417415 </v>
   <v>       0.40790931       0.62211625       0.69058213 </v>
   <v>       0.47619960       0.62606623       0.67660612 </v>
   <v>       0.50295190       0.58590820       0.62668073 </v>
   <v>       0.39825425       0.53800137       0.60426081 </v>
   <v>       0.36904589       0.57756069       0.65398228 </v>
   <v>       0.37289802       0.40579857       0.48223443 </v>
   <v>       0.30486503       0.39173492       0.48443166 </v>
   <v>       0.26422003       0.42785518       0.52821594 </v>
   <v>       0.48989745       0.29510618       0.70074864 </v>
   <v>       0.61334240       0.29968355       0.72673159 </v>
   <v>       0.68424189       0.38076917       0.66478776 </v>
   <v>       0.54225374       0.36233861       0.46129841 </v>
   <v>       0.31579090       0.57306911       0.66420366 </v>
   <v>       0.44416348       0.37118871       0.61364770 </v>
   <v>       0.42392665       0.66833230       0.29622671 </v>
   <v>       0.45642762       0.71313270       0.40950260 </v>
   <v>       0.48809132       0.63358802       0.49907234 </v>
   <v>       0.56912778       0.41808713       0.41480476 </v>
   <v>       0.73767440       0.44963919       0.60776512 </v>
   <v>       0.72277620       0.60481012       0.45904817 </v>
   <v>       0.45570253       0.47012894       0.37468790 </v>
   <v>       0.40614333       0.37888556       0.44852541 </v>
   <v>       0.28443799       0.35306162       0.45202062 </v>
   <v>       0.79326502       0.53703787       0.53892527 </v>
   <v>       0.55589708       0.58769132       0.61440612 </v>
   <v>       0.42412006       0.54328620       0.27986105 </v>
   <v>       0.50894741       0.65984570       0.70400156 </v>
   <v>       0.26265982       0.50568523       0.60265428 </v>
   <v>       0.21072272       0.41813760       0.53105039 </v>
   <v>       0.60090654       0.58197914       0.45254259 </v>
   <v>       0.38544357       0.65296704       0.72941133 </v>
   <v>       0.47424490       0.54794204       0.44140236 </v>
   <v>       0.40180479       0.45306079       0.52108436 </v>
   <v>       0.53520702       0.41608490       0.59173240 </v>
   <v>       0.46544808       0.54254992       0.59041194 </v>
   <v>       0.60138410       0.50650621       0.52397638 </v>
   <v>       0.53073984       0.40562607       0.44215451 </v>
   <v>       0.50088568       0.48087016       0.51934246 </v>
  </varray>
  <varray name="selective"  type="logical" >
   <v type="logical" >  T  T  T </v>
   <v type="logical" >  T  T  T </v>
   <v type="logical" >  T  T  T </v>
   <v type="logical" >  T  T  T </v>
   <v type="logical" >  T  T  T </v>
   <v type="logical" >  T  T  T </v>
   <v type="logical" >  T  T  T </v>
   <v type="logical" >  T  T  T </v>
   <v type="logical" >  T  T  T </v>
   <v type="logical" >  T  T  T </v>
   <v type="logical" >  T  T  T </v>
   <v type="logical" >  T  T  T </v>
   <v type="logical" >  T  T  T </v>
   <v type="logical" >  T  T  T </v>
   <v type="logical" >  T  T  T </v>
   <v type="logical" >  T  T  T </v>
   <v type="logical" >  T  T  T </v>
   <v type="logical" >  T  T  T </v>
   <v type="logical" >  T  T  T </v>
   <v type="logical" >  T  T  T </v>
   <v type="logical" >  T  T  T </v>
   <v type="logical" >  T  T  T </v>
   <v type="logical" >  T  T  T </v>
   <v type="logical" >  T  T  T </v>
   <v type="logical" >  T  T  T </v>
   <v type="logical" >  T  T  T </v>
   <v type="logical" >  T  T  T </v>
   <v type="logical" >  T  T  T </v>
   <v type="logical" >  T  T  T </v>
   <v type="logical" >  T  T  T </v>
   <v type="logical" >  T  T  T </v>
   <v type="logical" >  T  T  T </v>
   <v type="logical" >  T  T  T </v>
   <v type="logical" >  T  T  T </v>
   <v type="logical" >  T  T  T </v>
   <v type="logical" >  T  T  T </v>
   <v type="logical" >  T  T  T </v>
   <v type="logical" >  T  T  T </v>
   <v type="logical" >  T  T  T </v>
   <v type="logical" >  T  T  T </v>
   <v type="logical" >  T  T  T </v>
   <v type="logical" >  T  T  T </v>
   <v type="logical" >  T  T  T </v>
   <v type="logical" >  T  T  T </v>
   <v type="logical" >  T  T  T </v>
   <v type="logical" >  T  T  T </v>
   <v type="logical" >  T  T  T </v>
   <v type="logical" >  T  T  T </v>
   <v type="logical" >  T  T  T </v>
   <v type="logical" >  T  T  T </v>
   <v type="logical" >  T  T  T </v>
   <v type="logical" >  T  T  T </v>
   <v type="logical" >  T  T  T </v>
   <v type="logical" >  T  T  T </v>
   <v type="logical" >  T  T  T </v>
  </varray>
  <nose>
   <v>      -3.00000000       0.00000000       0.00010000       0.00010000 </v>
  </nose>
 </structure>
 <calculation>
  <scstep>
   <time name="dav">   14.81   15.73</time>
   <time name="total">   22.37   23.33</time>
   <energy>
    <i name="alphaZ">     12.91687988 </i>
    <i name="ewald">  23316.77270552 </i>
    <i name="hartreedc"> -28918.80440295 </i>
    <i name="XCdc">    400.96086655 </i>
    <i name="pawpsdc">   5890.45591622 </i>
    <i name="pawaedc">  -5710.10246236 </i>
    <i name="eentropy">     -0.00033608 </i>
    <i name="bandstr">  -1676.80161752 </i>
    <i name="atom">   7593.39991119 </i>
    <i name="e_fr_energy">    908.79746045 </i>
    <i name="e_wo_entrp">    908.79779653 </i>
    <i name="e_0_energy">    908.79762849 </i>
   </energy>
  </scstep>
  <scstep>
   <time name="dav">   19.24   20.30</time>
   <time name="total">   19.25   20.31</time>
   <energy>
    <i name="e_fr_energy">    -68.25913784 </i>
    <i name="e_wo_entrp">    -68.25913784 </i>
    <i name="e_0_energy">    -68.25913784 </i>
   </energy>
  </scstep>
  <scstep>
   <time name="dav">   16.01   16.93</time>
   <time name="total">   16.02   16.94</time>
   <energy>
    <i name="e_fr_energy">   -392.36602550 </i>
    <i name="e_wo_entrp">   -392.36602550 </i>
    <i name="e_0_energy">   -392.36602550 </i>
   </energy>
  </scstep>
  <scstep>
   <time name="dav">   13.77   14.61</time>
   <time name="total">   13.79   14.63</time>
   <energy>
    <i name="e_fr_energy">   -411.51411198 </i>
    <i name="e_wo_entrp">   -411.51411198 </i>
    <i name="e_0_energy">   -411.51411198 </i>
   </energy>
  </scstep>
  <scstep>
   <time name="dav">   16.01   16.95</time>
   <time name="total">   21.33   22.30</time>
   <energy>
    <i name="e_fr_energy">   -411.76194900 </i>
    <i name="e_wo_entrp">   -411.76194900 </i>
    <i name="e_0_energy">   -411.76194900 </i>
   </energy>
  </scstep>
  <scstep>
   <time name="dav">   10.85   11.49</time>
   <time name="total">   23.49   24.15</time>
   <energy>
    <i name="e_fr_energy">   -393.72896924 </i>
    <i name="e_wo_entrp">   -393.72896924 </i>
    <i name="e_0_energy">   -393.72896924 </i>
   </energy>
  </scstep>
  <scstep>
   <time name="dav">   15.01   16.47</time>
   <time name="total">   27.80   29.30</time>
   <energy>
    <i name="e_fr_energy">   -382.87086751 </i>
    <i name="e_wo_entrp">   -382.87086751 </i>
    <i name="e_0_energy">   -382.87086751 </i>
   </energy>
  </scstep>
  <scstep>
   <time name="dav">   15.19   16.46</time>
   <time name="total">   27.88   29.18</time>
   <energy>
    <i name="e_fr_energy">   -378.49112193 </i>
    <i name="e_wo_entrp">   -378.49112193 </i>
    <i name="e_0_energy">   -378.49112193 </i>
   </energy>
  </scstep>
  <scstep>
   <time name="dav">   15.06   16.34</time>
   <time name="total">   27.86   29.16</time>
   <energy>
    <i name="e_fr_energy">   -377.28948216 </i>
    <i name="e_wo_entrp">   -377.28948216 </i>
    <i name="e_0_energy">   -377.28948216 </i>
   </energy>
  </scstep>
  <scstep>
   <time name="dav">   15.23   16.50</time>
   <time name="total">   27.94   29.25</time>
   <energy>
    <i name="e_fr_energy">   -377.23821566 </i>
    <i name="e_wo_entrp">   -377.23821566 </i>
    <i name="e_0_energy">   -377.23821566 </i>
   </energy>
  </scstep>
  <scstep>
   <time name="dav">   15.06   16.33</time>
   <time name="total">   27.85   29.15</time>
   <energy>
    <i name="e_fr_energy">   -377.09855471 </i>
    <i name="e_wo_entrp">   -377.09855471 </i>
    <i name="e_0_energy">   -377.09855471 </i>
   </energy>
  </scstep>
  <scstep>
   <time name="dav">   15.19   16.47</time>
   <time name="total">   28.00   29.31</time>
   <energy>
    <i name="e_fr_energy">   -377.03285205 </i>
    <i name="e_wo_entrp">   -377.03285205 </i>
    <i name="e_0_energy">   -377.03285205 </i>
   </energy>
  </scstep>
  <scstep>
   <time name="dav">   15.07   16.34</time>
   <time name="total">   27.95   29.24</time>
   <energy>
    <i name="e_fr_energy">   -377.01397698 </i>
    <i name="e_wo_entrp">   -377.01397698 </i>
    <i name="e_0_energy">   -377.01397698 </i>
   </energy>
  </scstep>
  <scstep>
   <time name="dav">   15.21   16.50</time>
   <time name="total">   27.93   29.45</time>
   <energy>
    <i name="e_fr_energy">   -377.00128950 </i>
    <i name="e_wo_entrp">   -377.00128950 </i>
    <i name="e_0_energy">   -377.00128950 </i>
   </energy>
  </scstep>
  <scstep>
   <time name="dav">   15.09   16.35</time>
   <time name="total">   27.79   29.07</time>
   <energy>
    <i name="e_fr_energy">   -377.00034104 </i>
    <i name="e_wo_entrp">   -377.00034104 </i>
    <i name="e_0_energy">   -377.00034104 </i>
   </energy>
  </scstep>
  <scstep>
   <time name="dav">   15.20   16.50</time>
   <time name="total">   28.10   29.44</time>
   <energy>
    <i name="e_fr_energy">   -377.00541036 </i>
    <i name="e_wo_entrp">   -377.00541036 </i>
    <i name="e_0_energy">   -377.00541036 </i>
   </energy>
  </scstep>
  <scstep>
   <time name="dav">   15.05   16.35</time>
   <time name="total">   27.84   29.17</time>
   <energy>
    <i name="e_fr_energy">   -377.01431848 </i>
    <i name="e_wo_entrp">   -377.01431848 </i>
    <i name="e_0_energy">   -377.01431848 </i>
   </energy>
  </scstep>
  <scstep>
   <time name="dav">   15.06   16.35</time>
   <time name="total">   28.16   29.49</time>
   <energy>
    <i name="e_fr_energy">   -377.01928681 </i>
    <i name="e_wo_entrp">   -377.01928681 </i>
    <i name="e_0_energy">   -377.01928681 </i>
   </energy>
  </scstep>
  <scstep>
   <time name="dav">   12.80   13.68</time>
   <time name="total">   25.66   26.57</time>
   <energy>
    <i name="e_fr_energy">   -377.02356652 </i>
    <i name="e_wo_entrp">   -377.02356652 </i>
    <i name="e_0_energy">   -377.02356652 </i>
   </energy>
  </scstep>
  <scstep>
   <time name="dav">   15.06   16.34</time>
   <time name="total">   27.98   29.30</time>
   <energy>
    <i name="e_fr_energy">   -377.02642943 </i>
    <i name="e_wo_entrp">   -377.02642943 </i>
    <i name="e_0_energy">   -377.02642943 </i>
   </energy>
  </scstep>
  <scstep>
   <time name="dav">   12.80   13.67</time>
   <time name="total">   25.60   26.56</time>
   <energy>
    <i name="e_fr_energy">   -377.02824996 </i>
    <i name="e_wo_entrp">   -377.02824996 </i>
    <i name="e_0_energy">   -377.02824996 </i>
   </energy>
  </scstep>
  <scstep>
   <time name="dav">   15.21   16.50</time>
   <time name="total">   28.08   29.38</time>
   <energy>
    <i name="e_fr_energy">   -377.02976602 </i>
    <i name="e_wo_entrp">   -377.02976602 </i>
    <i name="e_0_energy">   -377.02976602 </i>
   </energy>
  </scstep>
  <scstep>
   <time name="dav">   13.10   14.29</time>
   <time name="total">   26.10   27.31</time>
   <energy>
    <i name="e_fr_energy">   -377.03043345 </i>
    <i name="e_wo_entrp">   -377.03043345 </i>
    <i name="e_0_energy">   -377.03043345 </i>
   </energy>
  </scstep>
  <scstep>
   <time name="dav">   13.25   14.44</time>
   <time name="total">   26.10   27.34</time>
   <energy>
    <i name="e_fr_energy">   -377.03093180 </i>
    <i name="e_wo_entrp">   -377.03093180 </i>
    <i name="e_0_energy">   -377.03093180 </i>
   </energy>
  </scstep>
  <scstep>
   <time name="dav">   13.31   14.48</time>
   <time name="total">   26.15   27.36</time>
   <energy>
    <i name="e_fr_energy">   -377.03118831 </i>
    <i name="e_wo_entrp">   -377.03118831 </i>
    <i name="e_0_energy">   -377.03118831 </i>
   </energy>
  </scstep>
  <scstep>
   <time name="dav">   13.12   14.44</time>
   <time name="total">   26.04   27.39</time>
   <energy>
    <i name="e_fr_energy">   -377.03133848 </i>
    <i name="e_wo_entrp">   -377.03133848 </i>
    <i name="e_0_energy">   -377.03133848 </i>
   </energy>
  </scstep>
  <scstep>
   <time name="dav">   13.32   14.55</time>
   <time name="total">   26.18   27.45</time>
   <energy>
    <i name="e_fr_energy">   -377.03142765 </i>
    <i name="e_wo_entrp">   -377.03142765 </i>
    <i name="e_0_energy">   -377.03142765 </i>
   </energy>
  </scstep>
  <scstep>
   <time name="dav">   13.17   14.41</time>
   <time name="total">   26.01   27.43</time>
   <energy>
    <i name="e_fr_energy">   -377.03147320 </i>
    <i name="e_wo_entrp">   -377.03147320 </i>
    <i name="e_0_energy">   -377.03147320 </i>
   </energy>
  </scstep>
  <scstep>
   <time name="dav">   13.22   14.42</time>
   <time name="total">   26.10   27.36</time>
   <energy>
    <i name="e_fr_energy">   -377.03149483 </i>
    <i name="e_wo_entrp">   -377.03149483 </i>
    <i name="e_0_energy">   -377.03149483 </i>
   </energy>
  </scstep>
  <scstep>
   <time name="dav">   13.07   14.30</time>
   <time name="total">   20.64   21.89</time>
   <energy>
    <i name="alphaZ">     12.91687988 </i>
    <i name="ewald">  23316.77270552 </i>
    <i name="hartreedc"> -29153.40308316 </i>
    <i name="XCdc">    424.25578500 </i>
    <i name="pawpsdc">  81189.11150422 </i>
    <i name="pawaedc"> -81015.91066208 </i>
    <i name="eentropy">     -0.00000000 </i>
    <i name="bandstr">  -2744.17454539 </i>
    <i name="atom">   7593.39991119 </i>
    <i name="e_fr_energy">   -377.03150481 </i>
    <i name="e_wo_entrp">   -377.03150481 </i>
    <i name="e_0_energy">   -377.03150481 </i>
   </energy>
  </scstep>
  <structure>
   <crystal>
    <varray name="basis" >
     <v>      20.00000000       0.00000000       0.00000000 </v>
     <v>       0.00000000      20.00000000       0.00000000 </v>
     <v>       0.00000000       0.00000000      20.00000000 </v>
    </varray>
    <i name="volume">   8000.00000000 </i>
    <varray name="rec_basis" >
     <v>       0.05000000       0.00000000       0.00000000 </v>
     <v>       0.00000000       0.05000000       0.00000000 </v>
     <v>       0.00000000       0.00000000       0.05000000 </v>
    </varray>
   </crystal>
   <varray name="positions" >
    <v>       0.49710163       0.37190466       0.62618823 </v>
    <v>       0.43793752       0.56561110       0.32757008 </v>
    <v>       0.45581208       0.52423376       0.38051465 </v>
    <v>       0.47372925       0.61530131       0.44986522 </v>
    <v>       0.45595175       0.65963312       0.39935201 </v>
    <v>       0.43785737       0.63472201       0.33675972 </v>
    <v>       0.52307882       0.32955005       0.67474498 </v>
    <v>       0.29334713       0.47671938       0.56830116 </v>
    <v>       0.60227374       0.41933300       0.60593616 </v>
    <v>       0.63096398       0.37761922       0.65422416 </v>
    <v>       0.73964927       0.52855915       0.53463181 </v>
    <v>       0.70082162       0.56612858       0.49044049 </v>
    <v>       0.63257913       0.55363620       0.48652424 </v>
    <v>       0.63952130       0.46927713       0.56732841 </v>
    <v>       0.70843899       0.47974495       0.57314689 </v>
    <v>       0.59134754       0.33224398       0.68903016 </v>
    <v>       0.36211554       0.48866484       0.56417415 </v>
    <v>       0.40790931       0.62211625       0.69058213 </v>
    <v>       0.47619960       0.62606623       0.67660612 </v>
    <v>       0.50295190       0.58590820       0.62668073 </v>
    <v>       0.39825425       0.53800137       0.60426081 </v>
    <v>       0.36904589       0.57756069       0.65398228 </v>
    <v>       0.37289802       0.40579857       0.48223443 </v>
    <v>       0.30486503       0.39173492       0.48443166 </v>
    <v>       0.26422003       0.42785518       0.52821594 </v>
    <v>       0.48989745       0.29510618       0.70074864 </v>
    <v>       0.61334240       0.29968355       0.72673159 </v>
    <v>       0.68424189       0.38076917       0.66478776 </v>
    <v>       0.54225374       0.36233861       0.46129841 </v>
    <v>       0.31579090       0.57306911       0.66420366 </v>
    <v>       0.44416348       0.37118871       0.61364770 </v>
    <v>       0.42392665       0.66833230       0.29622671 </v>
    <v>       0.45642762       0.71313270       0.40950260 </v>
    <v>       0.48809132       0.63358802       0.49907234 </v>
    <v>       0.56912778       0.41808713       0.41480476 </v>
    <v>       0.73767440       0.44963919       0.60776512 </v>
    <v>       0.72277620       0.60481012       0.45904817 </v>
    <v>       0.45570253       0.47012894       0.37468790 </v>
    <v>       0.40614333       0.37888556       0.44852541 </v>
    <v>       0.28443799       0.35306162       0.45202062 </v>
    <v>       0.79326502       0.53703787       0.53892527 </v>
    <v>       0.55589708       0.58769132       0.61440612 </v>
    <v>       0.42412006       0.54328620       0.27986105 </v>
    <v>       0.50894741       0.65984570       0.70400156 </v>
    <v>       0.26265982       0.50568523       0.60265428 </v>
    <v>       0.21072272       0.41813760       0.53105039 </v>
    <v>       0.60090654       0.58197914       0.45254259 </v>
    <v>       0.38544357       0.65296704       0.72941133 </v>
    <v>       0.47424490       0.54794204       0.44140236 </v>
    <v>       0.40180479       0.45306079       0.52108436 </v>
    <v>       0.53520702       0.41608490       0.59173240 </v>
    <v>       0.46544808       0.54254992       0.59041194 </v>
    <v>       0.60138410       0.50650621       0.52397638 </v>
    <v>       0.53073984       0.40562607       0.44215451 </v>
    <v>       0.50088568       0.48087016       0.51934246 </v>
   </varray>
  </structure>
  <varray name="forces" >
   <v>       0.02051855      -0.44893979       0.47076346 </v>
   <v>      -0.00028086      -0.00626488       0.00693665 </v>
   <v>       0.00059882      -0.06870220       0.01214878 </v>
   <v>       0.01706288       0.01523239       0.05159961 </v>
   <v>       0.00346581      -0.00113334       0.00847805 </v>
   <v>       0.00275355      -0.00450372       0.00835386 </v>
   <v>      -0.40080777       0.66062146      -0.74423366 </v>
   <v>       0.00055762       0.01310360       0.01335725 </v>
   <v>       0.01847430       0.00565446      -0.01001358 </v>
   <v>      -0.12456416      -0.10236397       0.07011860 </v>
   <v>       0.01463072       0.03410823      -0.02936132 </v>
   <v>       0.05692202      -0.03025384       0.04413377 </v>
   <v>      -0.09572121      -0.03471837       0.01332622 </v>
   <v>      -0.04047082       0.07312574      -0.07988885 </v>
   <v>      -0.03161309      -0.07889468       0.07120904 </v>
   <v>       0.09037403       0.05011952      -0.03309878 </v>
   <v>      -0.01902848       0.01350087      -0.00484510 </v>
   <v>       0.02290316      -0.00584776      -0.01591291 </v>
   <v>       0.00016935       0.01167226       0.01839619 </v>
   <v>       0.00848692      -0.02365577      -0.03698853 </v>
   <v>       0.02481297       0.01020343      -0.01751189 </v>
   <v>      -0.01648393      -0.00839248      -0.00524878 </v>
   <v>       0.02433064      -0.02785543      -0.02237561 </v>
   <v>      -0.02179613      -0.00885314       0.00062201 </v>
   <v>       0.01120692      -0.00862729      -0.01302752 </v>
   <v>      -0.11746477       0.05643953      -0.08422668 </v>
   <v>      -0.07386660      -0.01797375       0.00017034 </v>
   <v>       0.00192760      -0.00240184       0.00984633 </v>
   <v>      -0.00134873      -0.00801988      -0.07878924 </v>
   <v>      -0.00210119       0.00872276      -0.00078373 </v>
   <v>       1.15009863       0.02859051       0.25876477 </v>
   <v>      -0.00307804       0.00519775      -0.00150302 </v>
   <v>       0.00483703      -0.00133937       0.00384935 </v>
   <v>      -0.00012182       0.01665091      -0.00734955 </v>
   <v>       0.00527608      -0.00727686      -0.04967639 </v>
   <v>       0.03651119       0.01010786      -0.00110331 </v>
   <v>       0.00846750       0.00372580      -0.00558860 </v>
   <v>      -0.01071705      -0.00082153      -0.01758289 </v>
   <v>      -0.00328346      -0.00348198      -0.01844762 </v>
   <v>      -0.00092791      -0.00538103      -0.00477871 </v>
   <v>      -0.00002854      -0.00261630       0.00510989 </v>
   <v>       0.00644443       0.01625553       0.00181619 </v>
   <v>      -0.00356066      -0.00410417       0.00670368 </v>
   <v>       0.00206284       0.00485955      -0.00121092 </v>
   <v>      -0.00442502      -0.00007802      -0.00346678 </v>
   <v>      -0.00662197      -0.00007622      -0.00338347 </v>
   <v>      -0.00046361      -0.00343961      -0.00007540 </v>
   <v>      -0.00377699       0.00872679       0.00615465 </v>
   <v>       0.00304049       0.03131074       0.01852221 </v>
   <v>      -0.09122847      -0.05724320       0.03653176 </v>
   <v>      -0.52463444      -0.01086923      -0.06733784 </v>
   <v>      -0.10162082       0.14233131       0.14521928 </v>
   <v>       0.01347796       0.02217034      -0.02831660 </v>
   <v>       0.00333165       0.03734040       0.05011872 </v>
   <v>       0.14729288      -0.29564210       0.05387663 </v>
  </varray>
  <varray name="stress" >
   <v>      -2.96143025       0.01909259      -0.14098472 </v>
   <v>       0.01909263      -2.82403022       0.32551479 </v>
   <v>      -0.14098473       0.32551481      -2.88924613 </v>
  </varray>
  <energy>
   <i name="e_fr_energy">   -377.03150481 </i>
   <i name="e_wo_entrp">   -377.03150481 </i>
   <i name="e_0_energy">     -0.00000000 </i>
  </energy>
  <time name="totalsc"> 1001.36 1039.59</time>
  <eigenvalues>
   <array>
    <dimension dim="1">band</dimension>
    <dimension dim="2">kpoint</dimension>
    <dimension dim="3">spin</dimension>
    <field>eigene</field>
    <field>occ</field>
    <set>
     <set comment="spin 1">
      <set comment="kpoint 1">
       <r>  -49.1586    1.0000 </r>
       <r>  -49.0785    1.0000 </r>
       <r>  -48.7880    1.0000 </r>
       <r>  -29.2370    1.0000 </r>
       <r>  -27.9351    1.0000 </r>
       <r>  -26.9408    1.0000 </r>
       <r>  -26.6402    1.0000 </r>
       <r>  -26.2235    1.0000 </r>
       <r>  -26.1573    1.0000 </r>
       <r>  -23.4230    1.0000 </r>
       <r>  -23.2677    1.0000 </r>
       <r>  -22.5482    1.0000 </r>
       <r>  -22.4778    1.0000 </r>
       <r>  -22.3765    1.0000 </r>
       <r>  -22.2522    1.0000 </r>
       <r>  -22.0140    1.0000 </r>
       <r>  -21.5318    1.0000 </r>
       <r>  -21.0874    1.0000 </r>
       <r>  -20.8485    1.0000 </r>
       <r>  -19.5668    1.0000 </r>
       <r>  -19.3339    1.0000 </r>
       <r>  -18.7862    1.0000 </r>
       <r>  -18.5004    1.0000 </r>
       <r>  -18.1913    1.0000 </r>
       <r>  -17.9204    1.0000 </r>
       <r>  -17.8268    1.0000 </r>
       <r>  -17.6600    1.0000 </r>
       <r>  -17.6023    1.0000 </r>
       <r>  -17.3575    1.0000 </r>
       <r>  -16.9151    1.0000 </r>
       <r>  -16.6747    1.0000 </r>
       <r>  -15.9447    1.0000 </r>
       <r>  -15.7233    1.0000 </r>
       <r>  -15.3035    1.0000 </r>
       <r>  -15.2524    1.0000 </r>
       <r>  -14.8200    1.0000 </r>
       <r>  -14.8099    1.0000 </r>
       <r>  -14.7542    1.0000 </r>
       <r>  -14.3810    1.0000 </r>
       <r>  -14.1535    1.0000 </r>
       <r>  -14.0917    1.0000 </r>
       <r>  -14.0101    1.0000 </r>
       <r>  -13.9906    1.0000 </r>
       <r>  -13.9568    1.0000 </r>
       <r>  -13.8457    1.0000 </r>
       <r>  -13.5507    1.0000 </r>
       <r>  -13.3778    1.0000 </r>
       <r>  -13.3288    1.0000 </r>
       <r>  -13.2317    1.0000 </r>
       <r>  -13.2120    1.0000 </r>
       <r>  -12.9732    1.0000 </r>
       <r>  -12.9469    1.0000 </r>
       <r>  -12.7468    1.0000 </r>
       <r>  -12.7029    1.0000 </r>
       <r>  -12.5797    1.0000 </r>
       <r>  -12.3819    1.0000 </r>
       <r>  -12.2846    1.0000 </r>
       <r>  -12.2445    1.0000 </r>
       <r>  -12.1272    1.0000 </r>
       <r>  -12.0571    1.0000 </r>
       <r>  -11.5915    1.0000 </r>
       <r>  -11.4986    1.0000 </r>
       <r>  -11.3091    1.0000 </r>
       <r>  -11.1962    1.0000 </r>
       <r>  -11.1334    1.0000 </r>
       <r>  -10.8161    1.0000 </r>
       <r>  -10.7284    1.0000 </r>
       <r>  -10.7004    1.0000 </r>
       <r>  -10.6519    1.0000 </r>
       <r>  -10.4430    1.0000 </r>
       <r>  -10.0333    1.0000 </r>
       <r>   -9.9865    1.0000 </r>
       <r>   -9.9518    1.0000 </r>
       <r>   -9.8256    1.0000 </r>
       <r>   -9.7913    1.0000 </r>
       <r>   -9.7497    1.0000 </r>
       <r>   -9.3771    1.0000 </r>
       <r>   -9.0022    1.0000 </r>
       <r>   -8.7016    1.0000 </r>
       <r>   -8.4359    1.0000 </r>
       <r>   -7.5077    1.0000 </r>
       <r>   -7.3229    1.0000 </r>
       <r>   -7.2281    1.0000 </r>
       <r>   -5.5853    0.0000 </r>
       <r>   -5.3620    0.0000 </r>
       <r>   -5.0194    0.0000 </r>
       <r>   -4.3406    0.0000 </r>
       <r>   -4.1982    0.0000 </r>
       <r>   -4.1138    0.0000 </r>
       <r>   -4.0057    0.0000 </r>
       <r>   -3.9334    0.0000 </r>
       <r>   -3.4802    0.0000 </r>
       <r>   -3.3407    0.0000 </r>
       <r>   -3.2384    0.0000 </r>
       <r>   -2.9517    0.0000 </r>
       <r>   -2.7710    0.0000 </r>
       <r>   -2.0394    0.0000 </r>
       <r>   -1.7382    0.0000 </r>
       <r>   -1.6527    0.0000 </r>
       <r>   -1.3886    0.0000 </r>
       <r>   -1.2151    0.0000 </r>
       <r>   -1.1682    0.0000 </r>
       <r>   -1.1065    0.0000 </r>
       <r>   -1.0219    0.0000 </r>
       <r>   -0.9401    0.0000 </r>
       <r>   -0.7596    0.0000 </r>
       <r>   -0.6615    0.0000 </r>
       <r>   -0.6261    0.0000 </r>
       <r>   -0.5470    0.0000 </r>
       <r>   -0.4538    0.0000 </r>
       <r>   -0.4019    0.0000 </r>
       <r>   -0.3422    0.0000 </r>
       <r>   -0.2499    0.0000 </r>
       <r>   -0.1671    0.0000 </r>
       <r>   -0.0310    0.0000 </r>
       <r>    0.0012    0.0000 </r>
       <r>    0.0738    0.0000 </r>
       <r>    0.1170    0.0000 </r>
       <r>    0.2081    0.0000 </r>
       <r>    0.2568    0.0000 </r>
       <r>    0.3147    0.0000 </r>
       <r>    0.3725    0.0000 </r>
       <r>    0.4318    0.0000 </r>
       <r>    0.4674    0.0000 </r>
       <r>    0.5474    0.0000 </r>
       <r>    0.5955    0.0000 </r>
       <r>    0.6274    0.0000 </r>
       <r>    0.7233    0.0000 </r>
      </set>
     </set>
     <set comment="spin 2">
      <set comment="kpoint 1">
       <r>  -49.1586    1.0000 </r>
       <r>  -49.0785    1.0000 </r>
       <r>  -48.7880    1.0000 </r>
       <r>  -29.2370    1.0000 </r>
       <r>  -27.9351    1.0000 </r>
       <r>  -26.9408    1.0000 </r>
       <r>  -26.6402    1.0000 </r>
       <r>  -26.2235    1.0000 </r>
       <r>  -26.1573    1.0000 </r>
       <r>  -23.4230    1.0000 </r>
       <r>  -23.2677    1.0000 </r>
       <r>  -22.5482    1.0000 </r>
       <r>  -22.4778    1.0000 </r>
       <r>  -22.3765    1.0000 </r>
       <r>  -22.2522    1.0000 </r>
       <r>  -22.0140    1.0000 </r>
       <r>  -21.5318    1.0000 </r>
       <r>  -21.0874    1.0000 </r>
       <r>  -20.8485    1.0000 </r>
       <r>  -19.5668    1.0000 </r>
       <r>  -19.3339    1.0000 </r>
       <r>  -18.7862    1.0000 </r>
       <r>  -18.5004    1.0000 </r>
       <r>  -18.1913    1.0000 </r>
       <r>  -17.9204    1.0000 </r>
       <r>  -17.8268    1.0000 </r>
       <r>  -17.6600    1.0000 </r>
       <r>  -17.6023    1.0000 </r>
       <r>  -17.3575    1.0000 </r>
       <r>  -16.9151    1.0000 </r>
       <r>  -16.6747    1.0000 </r>
       <r>  -15.9447    1.0000 </r>
       <r>  -15.7233    1.0000 </r>
       <r>  -15.3035    1.0000 </r>
       <r>  -15.2524    1.0000 </r>
       <r>  -14.8200    1.0000 </r>
       <r>  -14.8099    1.0000 </r>
       <r>  -14.7542    1.0000 </r>
       <r>  -14.3810    1.0000 </r>
       <r>  -14.1535    1.0000 </r>
       <r>  -14.0917    1.0000 </r>
       <r>  -14.0101    1.0000 </r>
       <r>  -13.9906    1.0000 </r>
       <r>  -13.9568    1.0000 </r>
       <r>  -13.8457    1.0000 </r>
       <r>  -13.5507    1.0000 </r>
       <r>  -13.3778    1.0000 </r>
       <r>  -13.3288    1.0000 </r>
       <r>  -13.2317    1.0000 </r>
       <r>  -13.2120    1.0000 </r>
       <r>  -12.9732    1.0000 </r>
       <r>  -12.9469    1.0000 </r>
       <r>  -12.7468    1.0000 </r>
       <r>  -12.7029    1.0000 </r>
       <r>  -12.5797    1.0000 </r>
       <r>  -12.3819    1.0000 </r>
       <r>  -12.2846    1.0000 </r>
       <r>  -12.2445    1.0000 </r>
       <r>  -12.1272    1.0000 </r>
       <r>  -12.0571    1.0000 </r>
       <r>  -11.5915    1.0000 </r>
       <r>  -11.4986    1.0000 </r>
       <r>  -11.3091    1.0000 </r>
       <r>  -11.1962    1.0000 </r>
       <r>  -11.1334    1.0000 </r>
       <r>  -10.8161    1.0000 </r>
       <r>  -10.7284    1.0000 </r>
       <r>  -10.7004    1.0000 </r>
       <r>  -10.6519    1.0000 </r>
       <r>  -10.4430    1.0000 </r>
       <r>  -10.0333    1.0000 </r>
       <r>   -9.9865    1.0000 </r>
       <r>   -9.9518    1.0000 </r>
       <r>   -9.8256    1.0000 </r>
       <r>   -9.7913    1.0000 </r>
       <r>   -9.7497    1.0000 </r>
       <r>   -9.3771    1.0000 </r>
       <r>   -9.0022    1.0000 </r>
       <r>   -8.7016    1.0000 </r>
       <r>   -8.4359    1.0000 </r>
       <r>   -7.5077    1.0000 </r>
       <r>   -7.3229    1.0000 </r>
       <r>   -7.2281    1.0000 </r>
       <r>   -5.5853    0.0000 </r>
       <r>   -5.3620    0.0000 </r>
       <r>   -5.0194    0.0000 </r>
       <r>   -4.3406    0.0000 </r>
       <r>   -4.1982    0.0000 </r>
       <r>   -4.1138    0.0000 </r>
       <r>   -4.0057    0.0000 </r>
       <r>   -3.9334    0.0000 </r>
       <r>   -3.4802    0.0000 </r>
       <r>   -3.3407    0.0000 </r>
       <r>   -3.2384    0.0000 </r>
       <r>   -2.9517    0.0000 </r>
       <r>   -2.7710    0.0000 </r>
       <r>   -2.0394    0.0000 </r>
       <r>   -1.7382    0.0000 </r>
       <r>   -1.6527    0.0000 </r>
       <r>   -1.3886    0.0000 </r>
       <r>   -1.2151    0.0000 </r>
       <r>   -1.1682    0.0000 </r>
       <r>   -1.1065    0.0000 </r>
       <r>   -1.0219    0.0000 </r>
       <r>   -0.9401    0.0000 </r>
       <r>   -0.7596    0.0000 </r>
       <r>   -0.6615    0.0000 </r>
       <r>   -0.6261    0.0000 </r>
       <r>   -0.5470    0.0000 </r>
       <r>   -0.4538    0.0000 </r>
       <r>   -0.4019    0.0000 </r>
       <r>   -0.3422    0.0000 </r>
       <r>   -0.2499    0.0000 </r>
       <r>   -0.1672    0.0000 </r>
       <r>   -0.0310    0.0000 </r>
       <r>    0.0012    0.0000 </r>
       <r>    0.0738    0.0000 </r>
       <r>    0.1170    0.0000 </r>
       <r>    0.2081    0.0000 </r>
       <r>    0.2568    0.0000 </r>
       <r>    0.3147    0.0000 </r>
       <r>    0.3725    0.0000 </r>
       <r>    0.4318    0.0000 </r>
       <r>    0.4674    0.0000 </r>
       <r>    0.5474    0.0000 </r>
       <r>    0.5955    0.0000 </r>
       <r>    0.6274    0.0000 </r>
       <r>    0.7182    0.0000 </r>
      </set>
     </set>
    </set>
   </array>
  </eigenvalues>
  <separator name="orbital magnetization" >
   <v name="MAGDIPOLOUT">      0.00000000      0.00000000      0.00000000</v>
  </separator>
  <dos>
   <i name="efermi">     -7.16217256 </i>
   <total>
    <array>
     <dimension dim="1">gridpoints</dimension>
     <dimension dim="2">spin</dimension>
     <field>energy</field>
     <field>total</field>
     <field>integrated</field>
     <set>
      <set comment="spin 1">
       <r>   -51.6527     0.0000     0.0000 </r>
       <r>   -51.4698     0.0000     0.0000 </r>
       <r>   -51.2869     0.0000     0.0000 </r>
       <r>   -51.1040     0.0000     0.0000 </r>
       <r>   -50.9211     0.0000     0.0000 </r>
       <r>   -50.7382     0.0000     0.0000 </r>
       <r>   -50.5553     0.0000     0.0000 </r>
       <r>   -50.3724     0.0000     0.0000 </r>
       <r>   -50.1895     0.0000     0.0000 </r>
       <r>   -50.0066     0.0000     0.0000 </r>
       <r>   -49.8237     0.0000     0.0000 </r>
       <r>   -49.6408     0.0000     0.0000 </r>
       <r>   -49.4579     0.0000     0.0000 </r>
       <r>   -49.2750     0.0000     0.0000 </r>
       <r>   -49.0921    11.2375     2.0553 </r>
       <r>   -48.9092     0.0000     4.0000 </r>
       <r>   -48.7263    10.9349     6.0000 </r>
       <r>   -48.5434     0.0000     6.0000 </r>
       <r>   -48.3605     0.0000     6.0000 </r>
       <r>   -48.1776     0.0000     6.0000 </r>
       <r>   -47.9947     0.0000     6.0000 </r>
       <r>   -47.8118     0.0000     6.0000 </r>
       <r>   -47.6289     0.0000     6.0000 </r>
       <r>   -47.4460     0.0000     6.0000 </r>
       <r>   -47.2631     0.0000     6.0000 </r>
       <r>   -47.0802     0.0000     6.0000 </r>
       <r>   -46.8973     0.0000     6.0000 </r>
       <r>   -46.7144     0.0000     6.0000 </r>
       <r>   -46.5315     0.0000     6.0000 </r>
       <r>   -46.3486     0.0000     6.0000 </r>
       <r>   -46.1657     0.0000     6.0000 </r>
       <r>   -45.9828     0.0000     6.0000 </r>
       <r>   -45.7999     0.0000     6.0000 </r>
       <r>   -45.6170     0.0000     6.0000 </r>
       <r>   -45.4341     0.0000     6.0000 </r>
       <r>   -45.2512     0.0000     6.0000 </r>
       <r>   -45.0683     0.0000     6.0000 </r>
       <r>   -44.8854     0.0000     6.0000 </r>
       <r>   -44.7025     0.0000     6.0000 </r>
       <r>   -44.5196     0.0000     6.0000 </r>
       <r>   -44.3367     0.0000     6.0000 </r>
       <r>   -44.1538     0.0000     6.0000 </r>
       <r>   -43.9709     0.0000     6.0000 </r>
       <r>   -43.7880     0.0000     6.0000 </r>
       <r>   -43.6051     0.0000     6.0000 </r>
       <r>   -43.4222     0.0000     6.0000 </r>
       <r>   -43.2393     0.0000     6.0000 </r>
       <r>   -43.0564     0.0000     6.0000 </r>
       <r>   -42.8735     0.0000     6.0000 </r>
       <r>   -42.6906     0.0000     6.0000 </r>
       <r>   -42.5076     0.0000     6.0000 </r>
       <r>   -42.3247     0.0000     6.0000 </r>
       <r>   -42.1418     0.0000     6.0000 </r>
       <r>   -41.9589     0.0000     6.0000 </r>
       <r>   -41.7760     0.0000     6.0000 </r>
       <r>   -41.5931     0.0000     6.0000 </r>
       <r>   -41.4102     0.0000     6.0000 </r>
       <r>   -41.2273     0.0000     6.0000 </r>
       <r>   -41.0444     0.0000     6.0000 </r>
       <r>   -40.8615     0.0000     6.0000 </r>
       <r>   -40.6786     0.0000     6.0000 </r>
       <r>   -40.4957     0.0000     6.0000 </r>
       <r>   -40.3128     0.0000     6.0000 </r>
       <r>   -40.1299     0.0000     6.0000 </r>
       <r>   -39.9470     0.0000     6.0000 </r>
       <r>   -39.7641     0.0000     6.0000 </r>
       <r>   -39.5812     0.0000     6.0000 </r>
       <r>   -39.3983     0.0000     6.0000 </r>
       <r>   -39.2154     0.0000     6.0000 </r>
       <r>   -39.0325     0.0000     6.0000 </r>
       <r>   -38.8496     0.0000     6.0000 </r>
       <r>   -38.6667     0.0000     6.0000 </r>
       <r>   -38.4838     0.0000     6.0000 </r>
       <r>   -38.3009     0.0000     6.0000 </r>
       <r>   -38.1180     0.0000     6.0000 </r>
       <r>   -37.9351     0.0000     6.0000 </r>
       <r>   -37.7522     0.0000     6.0000 </r>
       <r>   -37.5693     0.0000     6.0000 </r>
       <r>   -37.3864     0.0000     6.0000 </r>
       <r>   -37.2035     0.0000     6.0000 </r>
       <r>   -37.0206     0.0000     6.0000 </r>
       <r>   -36.8377     0.0000     6.0000 </r>
       <r>   -36.6548     0.0000     6.0000 </r>
       <r>   -36.4719     0.0000     6.0000 </r>
       <r>   -36.2890     0.0000     6.0000 </r>
       <r>   -36.1061     0.0000     6.0000 </r>
       <r>   -35.9232     0.0000     6.0000 </r>
       <r>   -35.7403     0.0000     6.0000 </r>
       <r>   -35.5574     0.0000     6.0000 </r>
       <r>   -35.3745     0.0000     6.0000 </r>
       <r>   -35.1916     0.0000     6.0000 </r>
       <r>   -35.0087     0.0000     6.0000 </r>
       <r>   -34.8258     0.0000     6.0000 </r>
       <r>   -34.6429     0.0000     6.0000 </r>
       <r>   -34.4600     0.0000     6.0000 </r>
       <r>   -34.2771     0.0000     6.0000 </r>
       <r>   -34.0942     0.0000     6.0000 </r>
       <r>   -33.9113     0.0000     6.0000 </r>
       <r>   -33.7284     0.0000     6.0000 </r>
       <r>   -33.5455     0.0000     6.0000 </r>
       <r>   -33.3626     0.0000     6.0000 </r>
       <r>   -33.1797     0.0000     6.0000 </r>
       <r>   -32.9968     0.0000     6.0000 </r>
       <r>   -32.8139     0.0000     6.0000 </r>
       <r>   -32.6310     0.0000     6.0000 </r>
       <r>   -32.4481     0.0000     6.0000 </r>
       <r>   -32.2652     0.0000     6.0000 </r>
       <r>   -32.0823     0.0000     6.0000 </r>
       <r>   -31.8994     0.0000     6.0000 </r>
       <r>   -31.7165     0.0000     6.0000 </r>
       <r>   -31.5336     0.0000     6.0000 </r>
       <r>   -31.3507     0.0000     6.0000 </r>
       <r>   -31.1678     0.0000     6.0000 </r>
       <r>   -30.9849     0.0000     6.0000 </r>
       <r>   -30.8020     0.0000     6.0000 </r>
       <r>   -30.6191     0.0000     6.0000 </r>
       <r>   -30.4362     0.0000     6.0000 </r>
       <r>   -30.2533     0.0000     6.0000 </r>
       <r>   -30.0704     0.0000     6.0000 </r>
       <r>   -29.8875     0.0000     6.0000 </r>
       <r>   -29.7046     0.0000     6.0000 </r>
       <r>   -29.5217     0.0000     6.0000 </r>
       <r>   -29.3388     0.0000     6.0000 </r>
       <r>   -29.1559     0.0000     8.0000 </r>
       <r>   -28.9730     0.0000     8.0000 </r>
       <r>   -28.7901     0.0000     8.0000 </r>
       <r>   -28.6072     0.0000     8.0000 </r>
       <r>   -28.4243     0.0000     8.0000 </r>
       <r>   -28.2414     0.0000     8.0000 </r>
       <r>   -28.0585     0.0000     8.0000 </r>
       <r>   -27.8756    10.9349    10.0000 </r>
       <r>   -27.6927     0.0000    10.0000 </r>
       <r>   -27.5098     0.0000    10.0000 </r>
       <r>   -27.3269     0.0000    10.0000 </r>
       <r>   -27.1440     0.0000    10.0000 </r>
       <r>   -26.9611     0.0224    10.0041 </r>
       <r>   -26.7782     0.0000    12.0000 </r>
       <r>   -26.5953    10.9349    14.0000 </r>
       <r>   -26.4124     0.0000    14.0000 </r>
       <r>   -26.2295     2.1684    14.3966 </r>
       <r>   -26.0466     0.0000    18.0000 </r>
       <r>   -25.8637     0.0000    18.0000 </r>
       <r>   -25.6808     0.0000    18.0000 </r>
       <r>   -25.4979     0.0000    18.0000 </r>
       <r>   -25.3150     0.0000    18.0000 </r>
       <r>   -25.1321     0.0000    18.0000 </r>
       <r>   -24.9492     0.0000    18.0000 </r>
       <r>   -24.7663     0.0000    18.0000 </r>
       <r>   -24.5834     0.0000    18.0000 </r>
       <r>   -24.4005     0.0000    18.0000 </r>
       <r>   -24.2176     0.0000    18.0000 </r>
       <r>   -24.0347     0.0000    18.0000 </r>
       <r>   -23.8518     0.0000    18.0000 </r>
       <r>   -23.6689     0.0000    18.0000 </r>
       <r>   -23.4860     0.0000    18.0000 </r>
       <r>   -23.3031     0.0000    20.0000 </r>
       <r>   -23.1202     0.0000    22.0000 </r>
       <r>   -22.9373     0.0000    22.0000 </r>
       <r>   -22.7544     0.0000    22.0000 </r>
       <r>   -22.5715     0.0052    22.0010 </r>
       <r>   -22.3886     0.4748    26.0868 </r>
       <r>   -22.2057    10.9349    30.0000 </r>
       <r>   -22.0228     1.1505    30.2104 </r>
       <r>   -21.8399     0.0000    32.0000 </r>
       <r>   -21.6570     0.0000    32.0000 </r>
       <r>   -21.4741    10.9349    34.0000 </r>
       <r>   -21.2912     0.0000    34.0000 </r>
       <r>   -21.1083     0.0170    34.0031 </r>
       <r>   -20.9254     0.0000    36.0000 </r>
       <r>   -20.7425     0.0000    38.0000 </r>
       <r>   -20.5596     0.0000    38.0000 </r>
       <r>   -20.3767     0.0000    38.0000 </r>
       <r>   -20.1938     0.0000    38.0000 </r>
       <r>   -20.0109     0.0000    38.0000 </r>
       <r>   -19.8280     0.0000    38.0000 </r>
       <r>   -19.6451     0.0000    38.0000 </r>
       <r>   -19.4622     0.0000    40.0000 </r>
       <r>   -19.2793    10.9349    42.0000 </r>
       <r>   -19.0964     0.0000    42.0000 </r>
       <r>   -18.9135     0.0000    42.0000 </r>
       <r>   -18.7306    10.9349    44.0000 </r>
       <r>   -18.5477     0.0000    44.0000 </r>
       <r>   -18.3648     0.0000    46.0000 </r>
       <r>   -18.1819     9.9152    47.8135 </r>
       <r>   -17.9990     0.0000    48.0000 </r>
       <r>   -17.8161    10.2262    51.8704 </r>
       <r>   -17.6332    10.9342    53.9999 </r>
       <r>   -17.4503     0.0000    56.0000 </r>
       <r>   -17.2674     0.0000    58.0000 </r>
       <r>   -17.0845     0.0000    58.0000 </r>
       <r>   -16.9016    10.6214    59.9427 </r>
       <r>   -16.7187     0.0000    60.0000 </r>
       <r>   -16.5358     0.0000    62.0000 </r>
       <r>   -16.3529     0.0000    62.0000 </r>
       <r>   -16.1700     0.0000    62.0000 </r>
       <r>   -15.9871     0.0000    62.0000 </r>
       <r>   -15.8042     0.0000    64.0000 </r>
       <r>   -15.6213     0.0000    66.0000 </r>
       <r>   -15.4384     0.0000    66.0000 </r>
       <r>   -15.2555    14.5466    68.6606 </r>
       <r>   -15.0726     0.0000    70.0000 </r>
       <r>   -14.8897     0.0000    70.0000 </r>
       <r>   -14.7068    10.9349    76.0000 </r>
       <r>   -14.5239     0.0000    76.0000 </r>
       <r>   -14.3410    10.9349    78.0000 </r>
       <r>   -14.1581     2.8245    78.5166 </r>
       <r>   -13.9752    21.7586    85.9796 </r>
       <r>   -13.7923    10.9349    90.0000 </r>
       <r>   -13.6094     0.0000    90.0000 </r>
       <r>   -13.4265     0.0000    92.0000 </r>
       <r>   -13.2436     0.5060    96.0925 </r>
       <r>   -13.0607     0.0000   100.0000 </r>
       <r>   -12.8778    10.9349   104.0000 </r>
       <r>   -12.6949    20.4595   107.7421 </r>
       <r>   -12.5120    10.9349   110.0000 </r>
       <r>   -12.3291    10.9349   112.0000 </r>
       <r>   -12.1462     0.0388   116.0071 </r>
       <r>   -11.9633     0.0000   120.0000 </r>
       <r>   -11.7804     0.0000   120.0000 </r>
       <r>   -11.5975     2.1833   120.3993 </r>
       <r>   -11.4146     0.0000   124.0000 </r>
       <r>   -11.2317    10.9349   126.0000 </r>
       <r>   -11.0488     0.0000   130.0000 </r>
       <r>   -10.8659     0.0000   130.0000 </r>
       <r>   -10.6830    21.7926   135.9859 </r>
       <r>   -10.5001     0.0000   138.0000 </r>
       <r>   -10.3172     0.0000   140.0000 </r>
       <r>   -10.1343     0.0000   140.0000 </r>
       <r>    -9.9514    16.6254   145.0408 </r>
       <r>    -9.7685    21.9068   150.0068 </r>
       <r>    -9.5856     0.0000   152.0000 </r>
       <r>    -9.4027     0.0016   152.0003 </r>
       <r>    -9.2198     0.0000   154.0000 </r>
       <r>    -9.0369     0.0000   154.0000 </r>
       <r>    -8.8540     0.0000   156.0000 </r>
       <r>    -8.6711    10.9348   158.0000 </r>
       <r>    -8.4882     0.0000   158.0000 </r>
       <r>    -8.3053     0.0000   160.0000 </r>
       <r>    -8.1224     0.0000   160.0000 </r>
       <r>    -7.9395     0.0000   160.0000 </r>
       <r>    -7.7566     0.0000   160.0000 </r>
       <r>    -7.5737     0.0000   160.0000 </r>
       <r>    -7.3908     0.0000   162.0000 </r>
       <r>    -7.2079    10.9119   165.9958 </r>
       <r>    -7.0250     0.0000   166.0000 </r>
       <r>    -6.8421     0.0000   166.0000 </r>
       <r>    -6.6592     0.0000   166.0000 </r>
       <r>    -6.4763     0.0000   166.0000 </r>
       <r>    -6.2934     0.0000   166.0000 </r>
       <r>    -6.1105     0.0000   166.0000 </r>
       <r>    -5.9276     0.0000   166.0000 </r>
       <r>    -5.7447     0.0000   166.0000 </r>
       <r>    -5.5618    10.9300   167.9991 </r>
       <r>    -5.3789     0.0936   168.0171 </r>
       <r>    -5.1960     0.0000   170.0000 </r>
       <r>    -5.0131     8.8799   171.6241 </r>
       <r>    -4.8302     0.0000   172.0000 </r>
       <r>    -4.6473     0.0000   172.0000 </r>
       <r>    -4.4644     0.0000   172.0000 </r>
       <r>    -4.2815    10.9349   174.0000 </r>
       <r>    -4.0986    10.7649   177.9689 </r>
       <r>    -3.9157    10.8681   181.9878 </r>
       <r>    -3.7328     0.0000   182.0000 </r>
       <r>    -3.5499     0.0000   182.0000 </r>
       <r>    -3.3670     0.0011   184.0002 </r>
       <r>    -3.1841    10.9349   188.0000 </r>
       <r>    -3.0012     0.0000   188.0000 </r>
       <r>    -2.8183     0.0000   190.0000 </r>
       <r>    -2.6354     0.0000   192.0000 </r>
       <r>    -2.4525     0.0000   192.0000 </r>
       <r>    -2.2696     0.0000   192.0000 </r>
       <r>    -2.0867     0.0000   192.0000 </r>
       <r>    -1.9038     0.0000   194.0000 </r>
       <r>    -1.7209    10.8571   195.9858 </r>
       <r>    -1.5380     0.0000   198.0000 </r>
       <r>    -1.3551    10.9349   200.0000 </r>
       <r>    -1.1722    14.0578   202.5712 </r>
       <r>    -0.9893    10.9349   208.0000 </r>
       <r>    -0.8064     0.0000   210.0000 </r>
       <r>    -0.6235    17.9786   215.2883 </r>
       <r>    -0.4406    10.5977   219.9383 </r>
       <r>    -0.2577     1.4888   224.2723 </r>
       <r>    -0.0748     0.0000   228.0000 </r>
       <r>     0.1081    12.0670   234.2071 </r>
       <r>     0.2910    10.9392   240.0008 </r>
       <r>     0.4739    19.9089   247.6414 </r>
       <r>     0.6568    21.8697   254.0000 </r>
       <r>     0.8397     0.0000   256.0000 </r>
       <r>     1.0226     0.0000   256.0000 </r>
       <r>     1.2055     0.0000   256.0000 </r>
       <r>     1.3884     0.0000   256.0000 </r>
       <r>     1.5713     0.0000   256.0000 </r>
       <r>     1.7542     0.0000   256.0000 </r>
       <r>     1.9371     0.0000   256.0000 </r>
       <r>     2.1200     0.0000   256.0000 </r>
       <r>     2.3029     0.0000   256.0000 </r>
       <r>     2.4858     0.0000   256.0000 </r>
       <r>     2.6687     0.0000   256.0000 </r>
       <r>     2.8516     0.0000   256.0000 </r>
       <r>     3.0345     0.0000   256.0000 </r>
       <r>     3.2174     0.0000   256.0000 </r>
      </set>
      <set comment="spin 2">
       <r>   -51.6527     0.0000     0.0000 </r>
       <r>   -51.4698     0.0000     0.0000 </r>
       <r>   -51.2869     0.0000     0.0000 </r>
       <r>   -51.1040     0.0000     0.0000 </r>
       <r>   -50.9211     0.0000     0.0000 </r>
       <r>   -50.7382     0.0000     0.0000 </r>
       <r>   -50.5553     0.0000     0.0000 </r>
       <r>   -50.3724     0.0000     0.0000 </r>
       <r>   -50.1895     0.0000     0.0000 </r>
       <r>   -50.0066     0.0000     0.0000 </r>
       <r>   -49.8237     0.0000     0.0000 </r>
       <r>   -49.6408     0.0000     0.0000 </r>
       <r>   -49.4579     0.0000     0.0000 </r>
       <r>   -49.2750     0.0000     0.0000 </r>
       <r>   -49.0921    11.2375     2.0553 </r>
       <r>   -48.9092     0.0000     4.0000 </r>
       <r>   -48.7263    10.9349     6.0000 </r>
       <r>   -48.5434     0.0000     6.0000 </r>
       <r>   -48.3605     0.0000     6.0000 </r>
       <r>   -48.1776     0.0000     6.0000 </r>
       <r>   -47.9947     0.0000     6.0000 </r>
       <r>   -47.8118     0.0000     6.0000 </r>
       <r>   -47.6289     0.0000     6.0000 </r>
       <r>   -47.4460     0.0000     6.0000 </r>
       <r>   -47.2631     0.0000     6.0000 </r>
       <r>   -47.0802     0.0000     6.0000 </r>
       <r>   -46.8973     0.0000     6.0000 </r>
       <r>   -46.7144     0.0000     6.0000 </r>
       <r>   -46.5315     0.0000     6.0000 </r>
       <r>   -46.3486     0.0000     6.0000 </r>
       <r>   -46.1657     0.0000     6.0000 </r>
       <r>   -45.9828     0.0000     6.0000 </r>
       <r>   -45.7999     0.0000     6.0000 </r>
       <r>   -45.6170     0.0000     6.0000 </r>
       <r>   -45.4341     0.0000     6.0000 </r>
       <r>   -45.2512     0.0000     6.0000 </r>
       <r>   -45.0683     0.0000     6.0000 </r>
       <r>   -44.8854     0.0000     6.0000 </r>
       <r>   -44.7025     0.0000     6.0000 </r>
       <r>   -44.5196     0.0000     6.0000 </r>
       <r>   -44.3367     0.0000     6.0000 </r>
       <r>   -44.1538     0.0000     6.0000 </r>
       <r>   -43.9709     0.0000     6.0000 </r>
       <r>   -43.7880     0.0000     6.0000 </r>
       <r>   -43.6051     0.0000     6.0000 </r>
       <r>   -43.4222     0.0000     6.0000 </r>
       <r>   -43.2393     0.0000     6.0000 </r>
       <r>   -43.0564     0.0000     6.0000 </r>
       <r>   -42.8735     0.0000     6.0000 </r>
       <r>   -42.6906     0.0000     6.0000 </r>
       <r>   -42.5076     0.0000     6.0000 </r>
       <r>   -42.3247     0.0000     6.0000 </r>
       <r>   -42.1418     0.0000     6.0000 </r>
       <r>   -41.9589     0.0000     6.0000 </r>
       <r>   -41.7760     0.0000     6.0000 </r>
       <r>   -41.5931     0.0000     6.0000 </r>
       <r>   -41.4102     0.0000     6.0000 </r>
       <r>   -41.2273     0.0000     6.0000 </r>
       <r>   -41.0444     0.0000     6.0000 </r>
       <r>   -40.8615     0.0000     6.0000 </r>
       <r>   -40.6786     0.0000     6.0000 </r>
       <r>   -40.4957     0.0000     6.0000 </r>
       <r>   -40.3128     0.0000     6.0000 </r>
       <r>   -40.1299     0.0000     6.0000 </r>
       <r>   -39.9470     0.0000     6.0000 </r>
       <r>   -39.7641     0.0000     6.0000 </r>
       <r>   -39.5812     0.0000     6.0000 </r>
       <r>   -39.3983     0.0000     6.0000 </r>
       <r>   -39.2154     0.0000     6.0000 </r>
       <r>   -39.0325     0.0000     6.0000 </r>
       <r>   -38.8496     0.0000     6.0000 </r>
       <r>   -38.6667     0.0000     6.0000 </r>
       <r>   -38.4838     0.0000     6.0000 </r>
       <r>   -38.3009     0.0000     6.0000 </r>
       <r>   -38.1180     0.0000     6.0000 </r>
       <r>   -37.9351     0.0000     6.0000 </r>
       <r>   -37.7522     0.0000     6.0000 </r>
       <r>   -37.5693     0.0000     6.0000 </r>
       <r>   -37.3864     0.0000     6.0000 </r>
       <r>   -37.2035     0.0000     6.0000 </r>
       <r>   -37.0206     0.0000     6.0000 </r>
       <r>   -36.8377     0.0000     6.0000 </r>
       <r>   -36.6548     0.0000     6.0000 </r>
       <r>   -36.4719     0.0000     6.0000 </r>
       <r>   -36.2890     0.0000     6.0000 </r>
       <r>   -36.1061     0.0000     6.0000 </r>
       <r>   -35.9232     0.0000     6.0000 </r>
       <r>   -35.7403     0.0000     6.0000 </r>
       <r>   -35.5574     0.0000     6.0000 </r>
       <r>   -35.3745     0.0000     6.0000 </r>
       <r>   -35.1916     0.0000     6.0000 </r>
       <r>   -35.0087     0.0000     6.0000 </r>
       <r>   -34.8258     0.0000     6.0000 </r>
       <r>   -34.6429     0.0000     6.0000 </r>
       <r>   -34.4600     0.0000     6.0000 </r>
       <r>   -34.2771     0.0000     6.0000 </r>
       <r>   -34.0942     0.0000     6.0000 </r>
       <r>   -33.9113     0.0000     6.0000 </r>
       <r>   -33.7284     0.0000     6.0000 </r>
       <r>   -33.5455     0.0000     6.0000 </r>
       <r>   -33.3626     0.0000     6.0000 </r>
       <r>   -33.1797     0.0000     6.0000 </r>
       <r>   -32.9968     0.0000     6.0000 </r>
       <r>   -32.8139     0.0000     6.0000 </r>
       <r>   -32.6310     0.0000     6.0000 </r>
       <r>   -32.4481     0.0000     6.0000 </r>
       <r>   -32.2652     0.0000     6.0000 </r>
       <r>   -32.0823     0.0000     6.0000 </r>
       <r>   -31.8994     0.0000     6.0000 </r>
       <r>   -31.7165     0.0000     6.0000 </r>
       <r>   -31.5336     0.0000     6.0000 </r>
       <r>   -31.3507     0.0000     6.0000 </r>
       <r>   -31.1678     0.0000     6.0000 </r>
       <r>   -30.9849     0.0000     6.0000 </r>
       <r>   -30.8020     0.0000     6.0000 </r>
       <r>   -30.6191     0.0000     6.0000 </r>
       <r>   -30.4362     0.0000     6.0000 </r>
       <r>   -30.2533     0.0000     6.0000 </r>
       <r>   -30.0704     0.0000     6.0000 </r>
       <r>   -29.8875     0.0000     6.0000 </r>
       <r>   -29.7046     0.0000     6.0000 </r>
       <r>   -29.5217     0.0000     6.0000 </r>
       <r>   -29.3388     0.0000     6.0000 </r>
       <r>   -29.1559     0.0000     8.0000 </r>
       <r>   -28.9730     0.0000     8.0000 </r>
       <r>   -28.7901     0.0000     8.0000 </r>
       <r>   -28.6072     0.0000     8.0000 </r>
       <r>   -28.4243     0.0000     8.0000 </r>
       <r>   -28.2414     0.0000     8.0000 </r>
       <r>   -28.0585     0.0000     8.0000 </r>
       <r>   -27.8756    10.9349    10.0000 </r>
       <r>   -27.6927     0.0000    10.0000 </r>
       <r>   -27.5098     0.0000    10.0000 </r>
       <r>   -27.3269     0.0000    10.0000 </r>
       <r>   -27.1440     0.0000    10.0000 </r>
       <r>   -26.9611     0.0224    10.0041 </r>
       <r>   -26.7782     0.0000    12.0000 </r>
       <r>   -26.5953    10.9349    14.0000 </r>
       <r>   -26.4124     0.0000    14.0000 </r>
       <r>   -26.2295     2.1685    14.3966 </r>
       <r>   -26.0466     0.0000    18.0000 </r>
       <r>   -25.8637     0.0000    18.0000 </r>
       <r>   -25.6808     0.0000    18.0000 </r>
       <r>   -25.4979     0.0000    18.0000 </r>
       <r>   -25.3150     0.0000    18.0000 </r>
       <r>   -25.1321     0.0000    18.0000 </r>
       <r>   -24.9492     0.0000    18.0000 </r>
       <r>   -24.7663     0.0000    18.0000 </r>
       <r>   -24.5834     0.0000    18.0000 </r>
       <r>   -24.4005     0.0000    18.0000 </r>
       <r>   -24.2176     0.0000    18.0000 </r>
       <r>   -24.0347     0.0000    18.0000 </r>
       <r>   -23.8518     0.0000    18.0000 </r>
       <r>   -23.6689     0.0000    18.0000 </r>
       <r>   -23.4860     0.0000    18.0000 </r>
       <r>   -23.3031     0.0000    20.0000 </r>
       <r>   -23.1202     0.0000    22.0000 </r>
       <r>   -22.9373     0.0000    22.0000 </r>
       <r>   -22.7544     0.0000    22.0000 </r>
       <r>   -22.5715     0.0052    22.0010 </r>
       <r>   -22.3886     0.4748    26.0868 </r>
       <r>   -22.2057    10.9349    30.0000 </r>
       <r>   -22.0228     1.1505    30.2104 </r>
       <r>   -21.8399     0.0000    32.0000 </r>
       <r>   -21.6570     0.0000    32.0000 </r>
       <r>   -21.4741    10.9349    34.0000 </r>
       <r>   -21.2912     0.0000    34.0000 </r>
       <r>   -21.1083     0.0170    34.0031 </r>
       <r>   -20.9254     0.0000    36.0000 </r>
       <r>   -20.7425     0.0000    38.0000 </r>
       <r>   -20.5596     0.0000    38.0000 </r>
       <r>   -20.3767     0.0000    38.0000 </r>
       <r>   -20.1938     0.0000    38.0000 </r>
       <r>   -20.0109     0.0000    38.0000 </r>
       <r>   -19.8280     0.0000    38.0000 </r>
       <r>   -19.6451     0.0000    38.0000 </r>
       <r>   -19.4622     0.0000    40.0000 </r>
       <r>   -19.2793    10.9349    42.0000 </r>
       <r>   -19.0964     0.0000    42.0000 </r>
       <r>   -18.9135     0.0000    42.0000 </r>
       <r>   -18.7306    10.9349    44.0000 </r>
       <r>   -18.5477     0.0000    44.0000 </r>
       <r>   -18.3648     0.0000    46.0000 </r>
       <r>   -18.1819     9.9152    47.8135 </r>
       <r>   -17.9990     0.0000    48.0000 </r>
       <r>   -17.8161    10.2262    51.8704 </r>
       <r>   -17.6332    10.9342    53.9999 </r>
       <r>   -17.4503     0.0000    56.0000 </r>
       <r>   -17.2674     0.0000    58.0000 </r>
       <r>   -17.0845     0.0000    58.0000 </r>
       <r>   -16.9016    10.6214    59.9427 </r>
       <r>   -16.7187     0.0000    60.0000 </r>
       <r>   -16.5358     0.0000    62.0000 </r>
       <r>   -16.3529     0.0000    62.0000 </r>
       <r>   -16.1700     0.0000    62.0000 </r>
       <r>   -15.9871     0.0000    62.0000 </r>
       <r>   -15.8042     0.0000    64.0000 </r>
       <r>   -15.6213     0.0000    66.0000 </r>
       <r>   -15.4384     0.0000    66.0000 </r>
       <r>   -15.2555    14.5466    68.6606 </r>
       <r>   -15.0726     0.0000    70.0000 </r>
       <r>   -14.8897     0.0000    70.0000 </r>
       <r>   -14.7068    10.9349    76.0000 </r>
       <r>   -14.5239     0.0000    76.0000 </r>
       <r>   -14.3410    10.9349    78.0000 </r>
       <r>   -14.1581     2.8245    78.5166 </r>
       <r>   -13.9752    21.7586    85.9797 </r>
       <r>   -13.7923    10.9349    90.0000 </r>
       <r>   -13.6094     0.0000    90.0000 </r>
       <r>   -13.4265     0.0000    92.0000 </r>
       <r>   -13.2436     0.5060    96.0925 </r>
       <r>   -13.0607     0.0000   100.0000 </r>
       <r>   -12.8778    10.9349   104.0000 </r>
       <r>   -12.6949    20.4595   107.7421 </r>
       <r>   -12.5120    10.9349   110.0000 </r>
       <r>   -12.3291    10.9349   112.0000 </r>
       <r>   -12.1462     0.0388   116.0071 </r>
       <r>   -11.9633     0.0000   120.0000 </r>
       <r>   -11.7804     0.0000   120.0000 </r>
       <r>   -11.5975     2.1833   120.3993 </r>
       <r>   -11.4146     0.0000   124.0000 </r>
       <r>   -11.2317    10.9349   126.0000 </r>
       <r>   -11.0488     0.0000   130.0000 </r>
       <r>   -10.8659     0.0000   130.0000 </r>
       <r>   -10.6830    21.7926   135.9859 </r>
       <r>   -10.5001     0.0000   138.0000 </r>
       <r>   -10.3172     0.0000   140.0000 </r>
       <r>   -10.1343     0.0000   140.0000 </r>
       <r>    -9.9514    16.6254   145.0408 </r>
       <r>    -9.7685    21.9068   150.0068 </r>
       <r>    -9.5856     0.0000   152.0000 </r>
       <r>    -9.4027     0.0016   152.0003 </r>
       <r>    -9.2198     0.0000   154.0000 </r>
       <r>    -9.0369     0.0000   154.0000 </r>
       <r>    -8.8540     0.0000   156.0000 </r>
       <r>    -8.6711    10.9348   158.0000 </r>
       <r>    -8.4882     0.0000   158.0000 </r>
       <r>    -8.3053     0.0000   160.0000 </r>
       <r>    -8.1224     0.0000   160.0000 </r>
       <r>    -7.9395     0.0000   160.0000 </r>
       <r>    -7.7566     0.0000   160.0000 </r>
       <r>    -7.5737     0.0000   160.0000 </r>
       <r>    -7.3908     0.0000   162.0000 </r>
       <r>    -7.2079    10.9119   165.9958 </r>
       <r>    -7.0250     0.0000   166.0000 </r>
       <r>    -6.8421     0.0000   166.0000 </r>
       <r>    -6.6592     0.0000   166.0000 </r>
       <r>    -6.4763     0.0000   166.0000 </r>
       <r>    -6.2934     0.0000   166.0000 </r>
       <r>    -6.1105     0.0000   166.0000 </r>
       <r>    -5.9276     0.0000   166.0000 </r>
       <r>    -5.7447     0.0000   166.0000 </r>
       <r>    -5.5618    10.9300   167.9991 </r>
       <r>    -5.3789     0.0936   168.0171 </r>
       <r>    -5.1960     0.0000   170.0000 </r>
       <r>    -5.0131     8.8798   171.6241 </r>
       <r>    -4.8302     0.0000   172.0000 </r>
       <r>    -4.6473     0.0000   172.0000 </r>
       <r>    -4.4644     0.0000   172.0000 </r>
       <r>    -4.2815    10.9349   174.0000 </r>
       <r>    -4.0986    10.7649   177.9689 </r>
       <r>    -3.9157    10.8681   181.9878 </r>
       <r>    -3.7328     0.0000   182.0000 </r>
       <r>    -3.5499     0.0000   182.0000 </r>
       <r>    -3.3670     0.0011   184.0002 </r>
       <r>    -3.1841    10.9349   188.0000 </r>
       <r>    -3.0012     0.0000   188.0000 </r>
       <r>    -2.8183     0.0000   190.0000 </r>
       <r>    -2.6354     0.0000   192.0000 </r>
       <r>    -2.4525     0.0000   192.0000 </r>
       <r>    -2.2696     0.0000   192.0000 </r>
       <r>    -2.0867     0.0000   192.0000 </r>
       <r>    -1.9038     0.0000   194.0000 </r>
       <r>    -1.7209    10.8572   195.9858 </r>
       <r>    -1.5380     0.0000   198.0000 </r>
       <r>    -1.3551    10.9349   200.0000 </r>
       <r>    -1.1722    14.0618   202.5719 </r>
       <r>    -0.9893    10.9349   208.0000 </r>
       <r>    -0.8064     0.0000   210.0000 </r>
       <r>    -0.6235    17.9827   215.2890 </r>
       <r>    -0.4406    10.5992   219.9386 </r>
       <r>    -0.2577     1.4926   224.2730 </r>
       <r>    -0.0748     0.0000   228.0000 </r>
       <r>     0.1081    12.0695   234.2075 </r>
       <r>     0.2910    10.9393   240.0008 </r>
       <r>     0.4739    19.9163   247.6427 </r>
       <r>     0.6568    21.8697   254.0000 </r>
       <r>     0.8397     0.0000   256.0000 </r>
       <r>     1.0226     0.0000   256.0000 </r>
       <r>     1.2055     0.0000   256.0000 </r>
       <r>     1.3884     0.0000   256.0000 </r>
       <r>     1.5713     0.0000   256.0000 </r>
       <r>     1.7542     0.0000   256.0000 </r>
       <r>     1.9371     0.0000   256.0000 </r>
       <r>     2.1200     0.0000   256.0000 </r>
       <r>     2.3029     0.0000   256.0000 </r>
       <r>     2.4858     0.0000   256.0000 </r>
       <r>     2.6687     0.0000   256.0000 </r>
       <r>     2.8516     0.0000   256.0000 </r>
       <r>     3.0345     0.0000   256.0000 </r>
       <r>     3.2174     0.0000   256.0000 </r>
      </set>
     </set>
    </array>
   </total>
  </dos>
 </calculation>
 <structure name="finalpos" >
  <crystal>
   <varray name="basis" >
    <v>      20.00000000       0.00000000       0.00000000 </v>
    <v>       0.00000000      20.00000000       0.00000000 </v>
    <v>       0.00000000       0.00000000      20.00000000 </v>
   </varray>
   <i name="volume">   8000.00000000 </i>
   <varray name="rec_basis" >
    <v>       0.05000000       0.00000000       0.00000000 </v>
    <v>       0.00000000       0.05000000       0.00000000 </v>
    <v>       0.00000000       0.00000000       0.05000000 </v>
   </varray>
  </crystal>
  <varray name="positions" >
   <v>       0.49710163       0.37190466       0.62618823 </v>
   <v>       0.43793752       0.56561110       0.32757008 </v>
   <v>       0.45581208       0.52423376       0.38051465 </v>
   <v>       0.47372925       0.61530131       0.44986522 </v>
   <v>       0.45595175       0.65963312       0.39935201 </v>
   <v>       0.43785737       0.63472201       0.33675972 </v>
   <v>       0.52307882       0.32955005       0.67474498 </v>
   <v>       0.29334713       0.47671938       0.56830116 </v>
   <v>       0.60227374       0.41933300       0.60593616 </v>
   <v>       0.63096398       0.37761922       0.65422416 </v>
   <v>       0.73964927       0.52855915       0.53463181 </v>
   <v>       0.70082162       0.56612858       0.49044049 </v>
   <v>       0.63257913       0.55363620       0.48652424 </v>
   <v>       0.63952130       0.46927713       0.56732841 </v>
   <v>       0.70843899       0.47974495       0.57314689 </v>
   <v>       0.59134754       0.33224398       0.68903016 </v>
   <v>       0.36211554       0.48866484       0.56417415 </v>
   <v>       0.40790931       0.62211625       0.69058213 </v>
   <v>       0.47619960       0.62606623       0.67660612 </v>
   <v>       0.50295190       0.58590820       0.62668073 </v>
   <v>       0.39825425       0.53800137       0.60426081 </v>
   <v>       0.36904589       0.57756069       0.65398228 </v>
   <v>       0.37289802       0.40579857       0.48223443 </v>
   <v>       0.30486503       0.39173492       0.48443166 </v>
   <v>       0.26422003       0.42785518       0.52821594 </v>
   <v>       0.48989745       0.29510618       0.70074864 </v>
   <v>       0.61334240       0.29968355       0.72673159 </v>
   <v>       0.68424189       0.38076917       0.66478776 </v>
   <v>       0.54225374       0.36233861       0.46129841 </v>
   <v>       0.31579090       0.57306911       0.66420366 </v>
   <v>       0.44416348       0.37118871       0.61364770 </v>
   <v>       0.42392665       0.66833230       0.29622671 </v>
   <v>       0.45642762       0.71313270       0.40950260 </v>
   <v>       0.48809132       0.63358802       0.49907234 </v>
   <v>       0.56912778       0.41808713       0.41480476 </v>
   <v>       0.73767440       0.44963919       0.60776512 </v>
   <v>       0.72277620       0.60481012       0.45904817 </v>
   <v>       0.45570253       0.47012894       0.37468790 </v>
   <v>       0.40614333       0.37888556       0.44852541 </v>
   <v>       0.28443799       0.35306162       0.45202062 </v>
   <v>       0.79326502       0.53703787       0.53892527 </v>
   <v>       0.55589708       0.58769132       0.61440612 </v>
   <v>       0.42412006       0.54328620       0.27986105 </v>
   <v>       0.50894741       0.65984570       0.70400156 </v>
   <v>       0.26265982       0.50568523       0.60265428 </v>
   <v>       0.21072272       0.41813760       0.53105039 </v>
   <v>       0.60090654       0.58197914       0.45254259 </v>
   <v>       0.38544357       0.65296704       0.72941133 </v>
   <v>       0.47424490       0.54794204       0.44140236 </v>
   <v>       0.40180479       0.45306079       0.52108436 </v>
   <v>       0.53520702       0.41608490       0.59173240 </v>
   <v>       0.46544808       0.54254992       0.59041194 </v>
   <v>       0.60138410       0.50650621       0.52397638 </v>
   <v>       0.53073984       0.40562607       0.44215451 </v>
   <v>       0.50088568       0.48087016       0.51934246 </v>
  </varray>
  <varray name="selective"  type="logical" >
   <v type="logical" >  T  T  T </v>
   <v type="logical" >  T  T  T </v>
   <v type="logical" >  T  T  T </v>
   <v type="logical" >  T  T  T </v>
   <v type="logical" >  T  T  T </v>
   <v type="logical" >  T  T  T </v>
   <v type="logical" >  T  T  T </v>
   <v type="logical" >  T  T  T </v>
   <v type="logical" >  T  T  T </v>
   <v type="logical" >  T  T  T </v>
   <v type="logical" >  T  T  T </v>
   <v type="logical" >  T  T  T </v>
   <v type="logical" >  T  T  T </v>
   <v type="logical" >  T  T  T </v>
   <v type="logical" >  T  T  T </v>
   <v type="logical" >  T  T  T </v>
   <v type="logical" >  T  T  T </v>
   <v type="logical" >  T  T  T </v>
   <v type="logical" >  T  T  T </v>
   <v type="logical" >  T  T  T </v>
   <v type="logical" >  T  T  T </v>
   <v type="logical" >  T  T  T </v>
   <v type="logical" >  T  T  T </v>
   <v type="logical" >  T  T  T </v>
   <v type="logical" >  T  T  T </v>
   <v type="logical" >  T  T  T </v>
   <v type="logical" >  T  T  T </v>
   <v type="logical" >  T  T  T </v>
   <v type="logical" >  T  T  T </v>
   <v type="logical" >  T  T  T </v>
   <v type="logical" >  T  T  T </v>
   <v type="logical" >  T  T  T </v>
   <v type="logical" >  T  T  T </v>
   <v type="logical" >  T  T  T </v>
   <v type="logical" >  T  T  T </v>
   <v type="logical" >  T  T  T </v>
   <v type="logical" >  T  T  T </v>
   <v type="logical" >  T  T  T </v>
   <v type="logical" >  T  T  T </v>
   <v type="logical" >  T  T  T </v>
   <v type="logical" >  T  T  T </v>
   <v type="logical" >  T  T  T </v>
   <v type="logical" >  T  T  T </v>
   <v type="logical" >  T  T  T </v>
   <v type="logical" >  T  T  T </v>
   <v type="logical" >  T  T  T </v>
   <v type="logical" >  T  T  T </v>
   <v type="logical" >  T  T  T </v>
   <v type="logical" >  T  T  T </v>
   <v type="logical" >  T  T  T </v>
   <v type="logical" >  T  T  T </v>
   <v type="logical" >  T  T  T </v>
   <v type="logical" >  T  T  T </v>
   <v type="logical" >  T  T  T </v>
   <v type="logical" >  T  T  T </v>
  </varray>
  <nose>
   <v>      -3.00000000       0.00000000       0.00010000       0.00010000 </v>
  </nose>
 </structure>
</modeling>
