  55  55   0   0
  0.1454545E+03  0.2000000E-08  0.2000000E-08  0.2000000E-08  0.5000000E-15
  1.000000000000000E-004
  CAR 
 c2_oh2_ruthenium_mol                    
      3.17221497    -51.73446595  301     -7.16854327      1.00000000
    -51.734  0.0000E+00  0.0000E+00  0.0000E+00  0.0000E+00
    -51.551  0.0000E+00  0.0000E+00  0.0000E+00  0.0000E+00
    -51.368  0.0000E+00  0.0000E+00  0.0000E+00  0.0000E+00
    -51.185  0.0000E+00  0.0000E+00  0.0000E+00  0.0000E+00
    -51.002  0.0000E+00  0.0000E+00  0.0000E+00  0.0000E+00
    -50.819  0.0000E+00  0.0000E+00  0.0000E+00  0.0000E+00
    -50.636  0.0000E+00  0.0000E+00  0.0000E+00  0.0000E+00
    -50.453  0.0000E+00  0.0000E+00  0.0000E+00  0.0000E+00
    -50.270  0.0000E+00  0.0000E+00  0.0000E+00  0.0000E+00
    -50.087  0.0000E+00  0.0000E+00  0.0000E+00  0.0000E+00
    -49.904  0.0000E+00  0.0000E+00  0.0000E+00  0.0000E+00
    -49.721  0.0000E+00  0.0000E+00  0.0000E+00  0.0000E+00
    -49.538  0.0000E+00  0.0000E+00  0.0000E+00  0.0000E+00
    -49.355  0.0000E+00  0.0000E+00  0.0000E+00  0.0000E+00
    -49.172  0.1093E+02  0.1093E+02  0.2000E+01  0.2000E+01
    -48.989  0.0000E+00  0.0000E+00  0.4000E+01  0.4000E+01
    -48.806  0.1093E+02  0.1093E+02  0.6000E+01  0.6000E+01
    -48.623  0.0000E+00  0.0000E+00  0.6000E+01  0.6000E+01
    -48.440  0.0000E+00  0.0000E+00  0.6000E+01  0.6000E+01
    -48.257  0.0000E+00  0.0000E+00  0.6000E+01  0.6000E+01
    -48.074  0.0000E+00  0.0000E+00  0.6000E+01  0.6000E+01
    -47.891  0.0000E+00  0.0000E+00  0.6000E+01  0.6000E+01
    -47.708  0.0000E+00  0.0000E+00  0.6000E+01  0.6000E+01
    -47.525  0.0000E+00  0.0000E+00  0.6000E+01  0.6000E+01
    -47.342  0.0000E+00  0.0000E+00  0.6000E+01  0.6000E+01
    -47.159  0.0000E+00  0.0000E+00  0.6000E+01  0.6000E+01
    -46.976  0.0000E+00  0.0000E+00  0.6000E+01  0.6000E+01
    -46.793  0.0000E+00  0.0000E+00  0.6000E+01  0.6000E+01
    -46.610  0.0000E+00  0.0000E+00  0.6000E+01  0.6000E+01
    -46.427  0.0000E+00  0.0000E+00  0.6000E+01  0.6000E+01
    -46.244  0.0000E+00  0.0000E+00  0.6000E+01  0.6000E+01
    -46.061  0.0000E+00  0.0000E+00  0.6000E+01  0.6000E+01
    -45.878  0.0000E+00  0.0000E+00  0.6000E+01  0.6000E+01
    -45.695  0.0000E+00  0.0000E+00  0.6000E+01  0.6000E+01
    -45.512  0.0000E+00  0.0000E+00  0.6000E+01  0.6000E+01
    -45.329  0.0000E+00  0.0000E+00  0.6000E+01  0.6000E+01
    -45.146  0.0000E+00  0.0000E+00  0.6000E+01  0.6000E+01
    -44.963  0.0000E+00  0.0000E+00  0.6000E+01  0.6000E+01
    -44.780  0.0000E+00  0.0000E+00  0.6000E+01  0.6000E+01
    -44.597  0.0000E+00  0.0000E+00  0.6000E+01  0.6000E+01
    -44.414  0.0000E+00  0.0000E+00  0.6000E+01  0.6000E+01
    -44.231  0.0000E+00  0.0000E+00  0.6000E+01  0.6000E+01
    -44.048  0.0000E+00  0.0000E+00  0.6000E+01  0.6000E+01
    -43.865  0.0000E+00  0.0000E+00  0.6000E+01  0.6000E+01
    -43.681  0.0000E+00  0.0000E+00  0.6000E+01  0.6000E+01
    -43.498  0.0000E+00  0.0000E+00  0.6000E+01  0.6000E+01
    -43.315  0.0000E+00  0.0000E+00  0.6000E+01  0.6000E+01
    -43.132  0.0000E+00  0.0000E+00  0.6000E+01  0.6000E+01
    -42.949  0.0000E+00  0.0000E+00  0.6000E+01  0.6000E+01
    -42.766  0.0000E+00  0.0000E+00  0.6000E+01  0.6000E+01
    -42.583  0.0000E+00  0.0000E+00  0.6000E+01  0.6000E+01
    -42.400  0.0000E+00  0.0000E+00  0.6000E+01  0.6000E+01
    -42.217  0.0000E+00  0.0000E+00  0.6000E+01  0.6000E+01
    -42.034  0.0000E+00  0.0000E+00  0.6000E+01  0.6000E+01
    -41.851  0.0000E+00  0.0000E+00  0.6000E+01  0.6000E+01
    -41.668  0.0000E+00  0.0000E+00  0.6000E+01  0.6000E+01
    -41.485  0.0000E+00  0.0000E+00  0.6000E+01  0.6000E+01
    -41.302  0.0000E+00  0.0000E+00  0.6000E+01  0.6000E+01
    -41.119  0.0000E+00  0.0000E+00  0.6000E+01  0.6000E+01
    -40.936  0.0000E+00  0.0000E+00  0.6000E+01  0.6000E+01
    -40.753  0.0000E+00  0.0000E+00  0.6000E+01  0.6000E+01
    -40.570  0.0000E+00  0.0000E+00  0.6000E+01  0.6000E+01
    -40.387  0.0000E+00  0.0000E+00  0.6000E+01  0.6000E+01
    -40.204  0.0000E+00  0.0000E+00  0.6000E+01  0.6000E+01
    -40.021  0.0000E+00  0.0000E+00  0.6000E+01  0.6000E+01
    -39.838  0.0000E+00  0.0000E+00  0.6000E+01  0.6000E+01
    -39.655  0.0000E+00  0.0000E+00  0.6000E+01  0.6000E+01
    -39.472  0.0000E+00  0.0000E+00  0.6000E+01  0.6000E+01
    -39.289  0.0000E+00  0.0000E+00  0.6000E+01  0.6000E+01
    -39.106  0.0000E+00  0.0000E+00  0.6000E+01  0.6000E+01
    -38.923  0.0000E+00  0.0000E+00  0.6000E+01  0.6000E+01
    -38.740  0.0000E+00  0.0000E+00  0.6000E+01  0.6000E+01
    -38.557  0.0000E+00  0.0000E+00  0.6000E+01  0.6000E+01
    -38.374  0.0000E+00  0.0000E+00  0.6000E+01  0.6000E+01
    -38.191  0.0000E+00  0.0000E+00  0.6000E+01  0.6000E+01
    -38.008  0.0000E+00  0.0000E+00  0.6000E+01  0.6000E+01
    -37.825  0.0000E+00  0.0000E+00  0.6000E+01  0.6000E+01
    -37.642  0.0000E+00  0.0000E+00  0.6000E+01  0.6000E+01
    -37.459  0.0000E+00  0.0000E+00  0.6000E+01  0.6000E+01
    -37.276  0.0000E+00  0.0000E+00  0.6000E+01  0.6000E+01
    -37.093  0.0000E+00  0.0000E+00  0.6000E+01  0.6000E+01
    -36.910  0.0000E+00  0.0000E+00  0.6000E+01  0.6000E+01
    -36.727  0.0000E+00  0.0000E+00  0.6000E+01  0.6000E+01
    -36.544  0.0000E+00  0.0000E+00  0.6000E+01  0.6000E+01
    -36.361  0.0000E+00  0.0000E+00  0.6000E+01  0.6000E+01
    -36.178  0.0000E+00  0.0000E+00  0.6000E+01  0.6000E+01
    -35.995  0.0000E+00  0.0000E+00  0.6000E+01  0.6000E+01
    -35.812  0.0000E+00  0.0000E+00  0.6000E+01  0.6000E+01
    -35.629  0.0000E+00  0.0000E+00  0.6000E+01  0.6000E+01
    -35.445  0.0000E+00  0.0000E+00  0.6000E+01  0.6000E+01
    -35.262  0.0000E+00  0.0000E+00  0.6000E+01  0.6000E+01
    -35.079  0.0000E+00  0.0000E+00  0.6000E+01  0.6000E+01
    -34.896  0.0000E+00  0.0000E+00  0.6000E+01  0.6000E+01
    -34.713  0.0000E+00  0.0000E+00  0.6000E+01  0.6000E+01
    -34.530  0.0000E+00  0.0000E+00  0.6000E+01  0.6000E+01
    -34.347  0.0000E+00  0.0000E+00  0.6000E+01  0.6000E+01
    -34.164  0.0000E+00  0.0000E+00  0.6000E+01  0.6000E+01
    -33.981  0.0000E+00  0.0000E+00  0.6000E+01  0.6000E+01
    -33.798  0.0000E+00  0.0000E+00  0.6000E+01  0.6000E+01
    -33.615  0.0000E+00  0.0000E+00  0.6000E+01  0.6000E+01
    -33.432  0.0000E+00  0.0000E+00  0.6000E+01  0.6000E+01
    -33.249  0.0000E+00  0.0000E+00  0.6000E+01  0.6000E+01
    -33.066  0.0000E+00  0.0000E+00  0.6000E+01  0.6000E+01
    -32.883  0.0000E+00  0.0000E+00  0.6000E+01  0.6000E+01
    -32.700  0.0000E+00  0.0000E+00  0.6000E+01  0.6000E+01
    -32.517  0.0000E+00  0.0000E+00  0.6000E+01  0.6000E+01
    -32.334  0.0000E+00  0.0000E+00  0.6000E+01  0.6000E+01
    -32.151  0.0000E+00  0.0000E+00  0.6000E+01  0.6000E+01
    -31.968  0.0000E+00  0.0000E+00  0.6000E+01  0.6000E+01
    -31.785  0.0000E+00  0.0000E+00  0.6000E+01  0.6000E+01
    -31.602  0.0000E+00  0.0000E+00  0.6000E+01  0.6000E+01
    -31.419  0.0000E+00  0.0000E+00  0.6000E+01  0.6000E+01
    -31.236  0.0000E+00  0.0000E+00  0.6000E+01  0.6000E+01
    -31.053  0.0000E+00  0.0000E+00  0.6000E+01  0.6000E+01
    -30.870  0.0000E+00  0.0000E+00  0.6000E+01  0.6000E+01
    -30.687  0.0000E+00  0.0000E+00  0.6000E+01  0.6000E+01
    -30.504  0.0000E+00  0.0000E+00  0.6000E+01  0.6000E+01
    -30.321  0.0000E+00  0.0000E+00  0.6000E+01  0.6000E+01
    -30.138  0.0000E+00  0.0000E+00  0.6000E+01  0.6000E+01
    -29.955  0.0000E+00  0.0000E+00  0.6000E+01  0.6000E+01
    -29.772  0.0000E+00  0.0000E+00  0.6000E+01  0.6000E+01
    -29.589  0.0000E+00  0.0000E+00  0.6000E+01  0.6000E+01
    -29.406  0.0000E+00  0.0000E+00  0.6000E+01  0.6000E+01
    -29.223  0.1093E+02  0.1093E+02  0.8000E+01  0.8000E+01
    -29.040  0.0000E+00  0.0000E+00  0.8000E+01  0.8000E+01
    -28.857  0.0000E+00  0.0000E+00  0.8000E+01  0.8000E+01
    -28.674  0.0000E+00  0.0000E+00  0.8000E+01  0.8000E+01
    -28.491  0.0000E+00  0.0000E+00  0.8000E+01  0.8000E+01
    -28.308  0.0000E+00  0.0000E+00  0.8000E+01  0.8000E+01
    -28.125  0.3991E-08  0.3990E-08  0.8000E+01  0.8000E+01
    -27.942  0.0000E+00  0.0000E+00  0.1000E+02  0.1000E+02
    -27.759  0.0000E+00  0.0000E+00  0.1000E+02  0.1000E+02
    -27.576  0.0000E+00  0.0000E+00  0.1000E+02  0.1000E+02
    -27.393  0.0000E+00  0.0000E+00  0.1000E+02  0.1000E+02
    -27.209  0.0000E+00  0.0000E+00  0.1000E+02  0.1000E+02
    -27.026  0.0000E+00  0.0000E+00  0.1000E+02  0.1000E+02
    -26.843  0.1093E+02  0.1093E+02  0.1200E+02  0.1200E+02
    -26.660  0.0000E+00  0.0000E+00  0.1400E+02  0.1400E+02
    -26.477  0.0000E+00  0.0000E+00  0.1400E+02  0.1400E+02
    -26.294  0.0000E+00  0.0000E+00  0.1400E+02  0.1400E+02
    -26.111  0.1093E+02  0.1093E+02  0.1800E+02  0.1800E+02
    -25.928  0.0000E+00  0.0000E+00  0.1800E+02  0.1800E+02
    -25.745  0.0000E+00  0.0000E+00  0.1800E+02  0.1800E+02
    -25.562  0.0000E+00  0.0000E+00  0.1800E+02  0.1800E+02
    -25.379  0.0000E+00  0.0000E+00  0.1800E+02  0.1800E+02
    -25.196  0.0000E+00  0.0000E+00  0.1800E+02  0.1800E+02
    -25.013  0.0000E+00  0.0000E+00  0.1800E+02  0.1800E+02
    -24.830  0.0000E+00  0.0000E+00  0.1800E+02  0.1800E+02
    -24.647  0.0000E+00  0.0000E+00  0.1800E+02  0.1800E+02
    -24.464  0.0000E+00  0.0000E+00  0.1800E+02  0.1800E+02
    -24.281  0.0000E+00  0.0000E+00  0.1800E+02  0.1800E+02
    -24.098  0.0000E+00  0.0000E+00  0.1800E+02  0.1800E+02
    -23.915  0.0000E+00  0.0000E+00  0.1800E+02  0.1800E+02
    -23.732  0.0000E+00  0.0000E+00  0.1800E+02  0.1800E+02
    -23.549  0.1093E+02  0.1093E+02  0.2000E+02  0.2000E+02
    -23.366  0.0000E+00  0.0000E+00  0.2000E+02  0.2000E+02
    -23.183  0.0000E+00  0.0000E+00  0.2200E+02  0.2200E+02
    -23.000  0.0000E+00  0.0000E+00  0.2200E+02  0.2200E+02
    -22.817  0.0000E+00  0.0000E+00  0.2200E+02  0.2200E+02
    -22.634  0.1093E+02  0.1093E+02  0.2400E+02  0.2400E+02
    -22.451  0.5982E+01  0.5982E+01  0.2509E+02  0.2509E+02
    -22.268  0.1461E-11  0.1461E-11  0.2800E+02  0.2800E+02
    -22.085  0.2414E-07  0.2414E-07  0.3000E+02  0.3000E+02
    -21.902  0.0000E+00  0.0000E+00  0.3200E+02  0.3200E+02
    -21.719  0.0000E+00  0.0000E+00  0.3200E+02  0.3200E+02
    -21.536  0.1093E+02  0.1093E+02  0.3400E+02  0.3400E+02
    -21.353  0.0000E+00  0.0000E+00  0.3400E+02  0.3400E+02
    -21.170  0.3131E-11  0.3131E-11  0.3400E+02  0.3400E+02
    -20.987  0.0000E+00  0.0000E+00  0.3600E+02  0.3600E+02
    -20.804  0.1083E+02  0.1083E+02  0.3798E+02  0.3798E+02
    -20.621  0.0000E+00  0.0000E+00  0.3800E+02  0.3800E+02
    -20.438  0.0000E+00  0.0000E+00  0.3800E+02  0.3800E+02
    -20.255  0.0000E+00  0.0000E+00  0.3800E+02  0.3800E+02
    -20.072  0.0000E+00  0.0000E+00  0.3800E+02  0.3800E+02
    -19.889  0.0000E+00  0.0000E+00  0.3800E+02  0.3800E+02
    -19.706  0.0000E+00  0.0000E+00  0.3800E+02  0.3800E+02
    -19.523  0.0000E+00  0.0000E+00  0.4000E+02  0.4000E+02
    -19.340  0.1093E+02  0.1093E+02  0.4200E+02  0.4200E+02
    -19.157  0.0000E+00  0.0000E+00  0.4200E+02  0.4200E+02
    -18.973  0.0000E+00  0.0000E+00  0.4200E+02  0.4200E+02
    -18.790  0.5672E-04  0.5672E-04  0.4200E+02  0.4200E+02
    -18.607  0.0000E+00  0.0000E+00  0.4400E+02  0.4400E+02
    -18.424  0.1093E+02  0.1093E+02  0.4600E+02  0.4600E+02
    -18.241  0.1093E+02  0.1093E+02  0.4800E+02  0.4800E+02
    -18.058  0.1076E+02  0.1076E+02  0.4997E+02  0.4997E+02
    -17.875  0.1896E-01  0.1896E-01  0.5000E+02  0.5000E+02
    -17.692  0.9573E-11  0.9573E-11  0.5200E+02  0.5200E+02
    -17.509  0.0000E+00  0.0000E+00  0.5600E+02  0.5600E+02
    -17.326  0.8323E+01  0.8323E+01  0.5752E+02  0.5752E+02
    -17.143  0.0000E+00  0.0000E+00  0.5800E+02  0.5800E+02
    -16.960  0.2066E+01  0.2066E+01  0.5838E+02  0.5838E+02
    -16.777  0.0000E+00  0.0000E+00  0.6000E+02  0.6000E+02
    -16.594  0.0000E+00  0.0000E+00  0.6200E+02  0.6200E+02
    -16.411  0.0000E+00  0.0000E+00  0.6200E+02  0.6200E+02
    -16.228  0.0000E+00  0.0000E+00  0.6200E+02  0.6200E+02
    -16.045  0.0000E+00  0.0000E+00  0.6200E+02  0.6200E+02
    -15.862  0.1093E+02  0.1093E+02  0.6400E+02  0.6400E+02
    -15.679  0.1093E+02  0.1093E+02  0.6600E+02  0.6600E+02
    -15.496  0.0000E+00  0.0000E+00  0.6600E+02  0.6600E+02
    -15.313  0.6247E-01  0.6247E-01  0.6601E+02  0.6601E+02
    -15.130  0.0000E+00  0.0000E+00  0.7000E+02  0.7000E+02
    -14.947  0.0000E+00  0.0000E+00  0.7000E+02  0.7000E+02
    -14.764  0.1885E+02  0.1885E+02  0.7345E+02  0.7345E+02
    -14.581  0.0000E+00  0.0000E+00  0.7600E+02  0.7600E+02
    -14.398  0.1913E+00  0.1913E+00  0.7804E+02  0.7804E+02
    -14.215  0.0000E+00  0.0000E+00  0.8000E+02  0.8000E+02
    -14.032  0.8620E+01  0.8620E+01  0.8358E+02  0.8358E+02
    -13.849  0.2441E-03  0.2441E-03  0.8800E+02  0.8800E+02
    -13.666  0.2129E-05  0.2129E-05  0.9000E+02  0.9000E+02
    -13.483  0.3417E+01  0.3417E+01  0.9263E+02  0.9263E+02
    -13.300  0.2323E-12  0.2323E-12  0.9600E+02  0.9600E+02
    -13.117  0.1091E+02  0.1091E+02  0.1000E+03  0.1000E+03
    -12.934  0.1092E+02  0.1092E+02  0.1020E+03  0.1020E+03
    -12.751  0.5408E-08  0.5407E-08  0.1060E+03  0.1060E+03
    -12.568  0.1093E+02  0.1093E+02  0.1100E+03  0.1100E+03
    -12.385  0.1093E+02  0.1093E+02  0.1120E+03  0.1120E+03
    -12.202  0.5152E-01  0.5152E-01  0.1140E+03  0.1140E+03
    -12.019  0.1906E-10  0.1906E-10  0.1180E+03  0.1180E+03
    -11.836  0.0000E+00  0.0000E+00  0.1200E+03  0.1200E+03
    -11.653  0.5383E+01  0.5383E+01  0.1210E+03  0.1210E+03
    -11.470  0.0000E+00  0.0000E+00  0.1240E+03  0.1240E+03
    -11.287  0.0000E+00  0.0000E+00  0.1260E+03  0.1260E+03
    -11.104  0.1308E+02  0.1308E+02  0.1284E+03  0.1284E+03
    -10.920  0.2550E-09  0.2550E-09  0.1300E+03  0.1300E+03
    -10.737  0.1093E+02  0.1093E+02  0.1340E+03  0.1340E+03
    -10.554  0.1093E+02  0.1093E+02  0.1380E+03  0.1380E+03
    -10.371  0.0000E+00  0.0000E+00  0.1400E+03  0.1400E+03
    -10.188  0.3385E+01  0.3385E+01  0.1406E+03  0.1406E+03
    -10.005  0.0000E+00  0.0000E+00  0.1440E+03  0.1440E+03
     -9.822  0.1375E-02  0.1375E-02  0.1460E+03  0.1460E+03
     -9.639  0.1092E+02  0.1092E+02  0.1520E+03  0.1520E+03
     -9.456  0.0000E+00  0.0000E+00  0.1520E+03  0.1520E+03
     -9.273  0.0000E+00  0.0000E+00  0.1540E+03  0.1540E+03
     -9.090  0.1636E+01  0.1636E+01  0.1543E+03  0.1543E+03
     -8.907  0.0000E+00  0.0000E+00  0.1560E+03  0.1560E+03
     -8.724  0.1088E+02  0.1088E+02  0.1580E+03  0.1580E+03
     -8.541  0.0000E+00  0.0000E+00  0.1580E+03  0.1580E+03
     -8.358  0.1093E+02  0.1093E+02  0.1600E+03  0.1600E+03
     -8.175  0.0000E+00  0.0000E+00  0.1600E+03  0.1600E+03
     -7.992  0.0000E+00  0.0000E+00  0.1600E+03  0.1600E+03
     -7.809  0.0000E+00  0.0000E+00  0.1600E+03  0.1600E+03
     -7.626  0.3861E-05  0.3861E-05  0.1600E+03  0.1600E+03
     -7.443  0.0000E+00  0.0000E+00  0.1620E+03  0.1620E+03
     -7.260  0.2353E-03  0.2353E-03  0.1640E+03  0.1640E+03
     -7.077  0.0000E+00  0.0000E+00  0.1660E+03  0.1660E+03
     -6.894  0.0000E+00  0.0000E+00  0.1660E+03  0.1660E+03
     -6.711  0.0000E+00  0.0000E+00  0.1660E+03  0.1660E+03
     -6.528  0.0000E+00  0.0000E+00  0.1660E+03  0.1660E+03
     -6.345  0.0000E+00  0.0000E+00  0.1660E+03  0.1660E+03
     -6.162  0.0000E+00  0.0000E+00  0.1660E+03  0.1660E+03
     -5.979  0.0000E+00  0.0000E+00  0.1660E+03  0.1660E+03
     -5.796  0.0000E+00  0.0000E+00  0.1680E+03  0.1680E+03
     -5.613  0.0000E+00  0.0000E+00  0.1680E+03  0.1680E+03
     -5.430  0.0000E+00  0.0000E+00  0.1680E+03  0.1680E+03
     -5.247  0.0000E+00  0.0000E+00  0.1680E+03  0.1680E+03
     -5.064  0.0000E+00  0.0000E+00  0.1680E+03  0.1680E+03
     -4.881  0.1093E+02  0.1093E+02  0.1720E+03  0.1720E+03
     -4.698  0.0000E+00  0.0000E+00  0.1720E+03  0.1720E+03
     -4.515  0.8004E-05  0.8004E-05  0.1720E+03  0.1720E+03
     -4.332  0.0000E+00  0.0000E+00  0.1740E+03  0.1740E+03
     -4.149  0.1093E+02  0.1093E+02  0.1760E+03  0.1760E+03
     -3.966  0.1449E+02  0.1449E+02  0.1807E+03  0.1807E+03
     -3.783  0.0000E+00  0.0000E+00  0.1820E+03  0.1820E+03
     -3.600  0.4574E+01  0.4574E+01  0.1828E+03  0.1828E+03
     -3.417  0.1093E+02  0.1093E+02  0.1860E+03  0.1860E+03
     -3.234  0.1093E+02  0.1093E+02  0.1880E+03  0.1880E+03
     -3.051  0.0000E+00  0.0000E+00  0.1880E+03  0.1880E+03
     -2.868  0.0000E+00  0.0000E+00  0.1900E+03  0.1900E+03
     -2.684  0.1093E+02  0.1093E+02  0.1920E+03  0.1920E+03
     -2.501  0.0000E+00  0.0000E+00  0.1920E+03  0.1920E+03
     -2.318  0.0000E+00  0.0000E+00  0.1920E+03  0.1920E+03
     -2.135  0.0000E+00  0.0000E+00  0.1920E+03  0.1920E+03
     -1.952  0.0000E+00  0.0000E+00  0.1920E+03  0.1920E+03
     -1.769  0.1136E-04  0.1135E-04  0.1940E+03  0.1940E+03
     -1.586  0.1093E+02  0.1093E+02  0.1980E+03  0.1980E+03
     -1.403  0.8347E+01  0.8347E+01  0.1995E+03  0.1995E+03
     -1.220  0.1093E+02  0.1093E+02  0.2020E+03  0.2020E+03
     -1.037  0.1093E+02  0.1093E+02  0.2060E+03  0.2060E+03
     -0.854  0.0000E+00  0.0000E+00  0.2100E+03  0.2100E+03
     -0.671  0.1132E+02  0.1132E+02  0.2121E+03  0.2121E+03
     -0.488  0.1093E+02  0.1093E+02  0.2180E+03  0.2180E+03
     -0.305  0.1846E+02  0.1846E+02  0.2254E+03  0.2254E+03
     -0.122  0.1093E+02  0.1093E+02  0.2280E+03  0.2280E+03
      0.061  0.2187E+02  0.2187E+02  0.2340E+03  0.2340E+03
      0.244  0.1091E+02  0.1091E+02  0.2400E+03  0.2400E+03
      0.427  0.2183E+02  0.2183E+02  0.2460E+03  0.2460E+03
      0.610  0.2187E+02  0.2187E+02  0.2520E+03  0.2520E+03
      0.793  0.0000E+00  0.0000E+00  0.2560E+03  0.2560E+03
      0.976  0.0000E+00  0.0000E+00  0.2560E+03  0.2560E+03
      1.159  0.0000E+00  0.0000E+00  0.2560E+03  0.2560E+03
      1.342  0.0000E+00  0.0000E+00  0.2560E+03  0.2560E+03
      1.525  0.0000E+00  0.0000E+00  0.2560E+03  0.2560E+03
      1.708  0.0000E+00  0.0000E+00  0.2560E+03  0.2560E+03
      1.891  0.0000E+00  0.0000E+00  0.2560E+03  0.2560E+03
      2.074  0.0000E+00  0.0000E+00  0.2560E+03  0.2560E+03
      2.257  0.0000E+00  0.0000E+00  0.2560E+03  0.2560E+03
      2.440  0.0000E+00  0.0000E+00  0.2560E+03  0.2560E+03
      2.623  0.0000E+00  0.0000E+00  0.2560E+03  0.2560E+03
      2.806  0.0000E+00  0.0000E+00  0.2560E+03  0.2560E+03
      2.989  0.0000E+00  0.0000E+00  0.2560E+03  0.2560E+03
      3.172  0.0000E+00  0.0000E+00  0.2560E+03  0.2560E+03
