   55   55    1    2
  0.1454545E+03  0.2000000E-08  0.2000000E-08  0.2000000E-08  0.5000000E-15
  1.000000000000000E-004
  CAR 
 c2_oh2_ruthenium_mol                    
    166      1    128
 
  0.0000000E+00  0.0000000E+00  0.0000000E+00  0.1000000E+01
    1      -49.238708    -49.238708
    2      -49.090286    -49.090286
    3      -48.853794    -48.853794
    4      -29.284841    -29.284841
    5      -28.081040    -28.081040
    6      -26.919850    -26.919850
    7      -26.764769    -26.764769
    8      -26.200253    -26.200253
    9      -26.177192    -26.177192
   10      -23.624007    -23.624007
   11      -23.280608    -23.280608
   12      -22.668169    -22.668168
   13      -22.451745    -22.451745
   14      -22.348440    -22.348440
   15      -22.216192    -22.216192
   16      -22.043367    -22.043367
   17      -21.573164    -21.573164
   18      -21.118787    -21.118787
   19      -20.820552    -20.820552
   20      -19.641281    -19.641281
   21      -19.399999    -19.399999
   22      -18.759280    -18.759280
   23      -18.473808    -18.473808
   24      -18.267195    -18.267195
   25      -18.073700    -18.073700
   26      -17.854680    -17.854680
   27      -17.642452    -17.642452
   28      -17.628409    -17.628409
   29      -17.331311    -17.331311
   30      -16.954002    -16.954002
   31      -16.698044    -16.698044
   32      -15.920677    -15.920677
   33      -15.715949    -15.715949
   34      -15.295150    -15.295150
   35      -15.216279    -15.216279
   36      -14.797949    -14.797949
   37      -14.768192    -14.768192
   38      -14.730339    -14.730339
   39      -14.488475    -14.488475
   40      -14.383016    -14.383016
   41      -14.129866    -14.129866
   42      -14.037551    -14.037551
   43      -13.971707    -13.971707
   44      -13.955073    -13.955073
   45      -13.819993    -13.819993
   46      -13.629956    -13.629956
   47      -13.479359    -13.479359
   48      -13.414258    -13.414258
   49      -13.246381    -13.246381
   50      -13.138035    -13.138035
   51      -12.956648    -12.956648
   52      -12.881289    -12.881289
   53      -12.833628    -12.833628
   54      -12.707511    -12.707511
   55      -12.603592    -12.603592
   56      -12.449323    -12.449323
   57      -12.296983    -12.296983
   58      -12.183299    -12.183299
   59      -12.136700    -12.136700
   60      -11.969444    -11.969444
   61      -11.652457    -11.652457
   62      -11.620889    -11.620889
   63      -11.408362    -11.408362
   64      -11.181936    -11.181936
   65      -11.097485    -11.097485
   66      -10.873964    -10.873964
   67      -10.771278    -10.771278
   68      -10.711182    -10.711182
   69      -10.579931    -10.579931
   70      -10.502896    -10.502896
   71      -10.184899    -10.184899
   72      -10.154741    -10.154741
   73       -9.932205     -9.932205
   74       -9.796482     -9.796482
   75       -9.750064     -9.750063
   76       -9.661545     -9.661546
   77       -9.389647     -9.389647
   78       -9.082940     -9.082940
   79       -8.742562     -8.742562
   80       -8.396429     -8.396429
   81       -7.591030     -7.591030
   82       -7.374374     -7.374374
   83       -7.231131     -7.231131
   84       -5.895572     -5.895572
   85       -4.987294     -4.987294
   86       -4.925977     -4.925977
   87       -4.480666     -4.480666
   88       -4.176356     -4.176356
   89       -4.121353     -4.121353
   90       -3.981576     -3.981576
   91       -3.962693     -3.962693
   92       -3.598155     -3.598155
   93       -3.474963     -3.474963
   94       -3.288851     -3.288851
   95       -2.979053     -2.979054
   96       -2.736127     -2.736127
   97       -1.878864     -1.878863
   98       -1.735829     -1.735829
   99       -1.633796     -1.633795
  100       -1.408424     -1.408423
  101       -1.271047     -1.271047
  102       -1.189231     -1.189230
  103       -1.104029     -1.104029
  104       -0.996131     -0.996130
  105       -0.949570     -0.949568
  106       -0.705905     -0.705903
  107       -0.658494     -0.658493
  108       -0.639873     -0.639872
  109       -0.540066     -0.540065
  110       -0.431863     -0.431861
  111       -0.420647     -0.420645
  112       -0.314147     -0.314145
  113       -0.310968     -0.310967
  114       -0.172284     -0.172280
  115       -0.053620     -0.053620
  116       -0.004881     -0.004879
  117        0.006717      0.006719
  118        0.082832      0.082832
  119        0.148817      0.148818
  120        0.223193      0.223195
  121        0.293217      0.293223
  122        0.390376      0.390377
  123        0.406812      0.406816
  124        0.468067      0.468072
  125        0.540755      0.540756
  126        0.593473      0.593479
  127        0.625919      0.625922
  128        0.676457      0.676423
