       N       E                     dE             d eps       ncg     rms          rms(c)
DAV:   1     0.911057290425E+03    0.91106E+03   -0.58799E+04   768   0.974E+02
DAV:   2    -0.688972552081E+02   -0.97995E+03   -0.97386E+03  1024   0.160E+02
DAV:   3    -0.389246427310E+03   -0.32035E+03   -0.31997E+03   768   0.849E+01
DAV:   4    -0.410511184059E+03   -0.21265E+02   -0.21237E+02   704   0.263E+01
DAV:   5    -0.410782838993E+03   -0.27165E+00   -0.27157E+00   896   0.325E+00    0.564E+01
DAV:   6    -0.391435825813E+03    0.19347E+02   -0.28500E+02   576   0.212E+01    0.373E+01
DAV:   7    -0.381824662832E+03    0.96112E+01   -0.21689E+01   768   0.183E+01    0.228E+01
DAV:   8    -0.378026617208E+03    0.37980E+01   -0.16310E+01   768   0.856E+00    0.882E+00
DAV:   9    -0.377069811150E+03    0.95681E+00   -0.87112E+00   768   0.510E+00    0.345E+00
DAV:  10    -0.377039896549E+03    0.29915E-01   -0.18385E-01   768   0.112E+00    0.251E+00
DAV:  11    -0.376912972205E+03    0.12692E+00   -0.13951E-01   768   0.859E-01    0.128E+00
DAV:  12    -0.376828168248E+03    0.84804E-01   -0.13189E-01   768   0.745E-01    0.719E-01
DAV:  13    -0.376806445092E+03    0.21723E-01   -0.15543E-02   768   0.349E-01    0.561E-01
DAV:  14    -0.376790159536E+03    0.16286E-01   -0.22361E-02   768   0.381E-01    0.370E-01
DAV:  15    -0.376790080685E+03    0.78851E-04   -0.58829E-03   768   0.227E-01    0.303E-01
DAV:  16    -0.376794921103E+03   -0.48404E-02   -0.13111E-03   768   0.118E-01    0.198E-01
DAV:  17    -0.376804718153E+03   -0.97971E-02   -0.24543E-03   768   0.142E-01    0.918E-02
DAV:  18    -0.376808629338E+03   -0.39112E-02   -0.70071E-04   768   0.741E-02    0.832E-02
DAV:  19    -0.376812650652E+03   -0.40213E-02   -0.26010E-04   768   0.520E-02    0.513E-02
DAV:  20    -0.376816289743E+03   -0.36391E-02   -0.27282E-04   768   0.472E-02    0.314E-02
DAV:  21    -0.376818066660E+03   -0.17769E-02   -0.76877E-05   768   0.260E-02    0.238E-02
DAV:  22    -0.376819768526E+03   -0.17019E-02   -0.49189E-05   768   0.200E-02    0.123E-02
DAV:  23    -0.376820715018E+03   -0.94649E-03   -0.39295E-05   768   0.143E-02    0.105E-02
DAV:  24    -0.376821178296E+03   -0.46328E-03   -0.74700E-06   640   0.665E-03    0.685E-03
DAV:  25    -0.376821568542E+03   -0.39025E-03   -0.10902E-05   640   0.657E-03    0.263E-03
DAV:  26    -0.376821679578E+03   -0.11104E-03   -0.18602E-06   640   0.286E-03    0.224E-03
DAV:  27    -0.376821791681E+03   -0.11210E-03   -0.14966E-06   640   0.234E-03    0.121E-03
DAV:  28    -0.376821865300E+03   -0.73619E-04   -0.14127E-06   640   0.206E-03    0.830E-04
DAV:  29    -0.376821882872E+03   -0.17572E-04   -0.79586E-08   640   0.795E-04    0.548E-04
DAV:  30    -0.376821906207E+03   -0.23335E-04   -0.21729E-07   640   0.975E-04    0.294E-04
DAV:  31    -0.376821914417E+03   -0.82097E-05    0.13404E-08   640   0.555E-04
   1 F= -.37682191E+03 E0= -.37682191E+03  d E =-.548359E-19  mag=    -0.0000
