 vasp.5.3.5 31Mar14 (build Apr 08 2014 12:00:03) complex                        
  
 VASP binary ID code NSC-NSCPATCH-BUILD02 date 2017.03.15  18:47:14
 running on   64 total cores
 distrk:  each k-point on   64 cores,    1 groups
 distr:  one band on NCORES_PER_BAND=   1 cores,   64 groups


--------------------------------------------------------------------------------------------------------


 INCAR:
 POTCAR:    PAW_PBE C_h 06Feb2004                 
 POTCAR:    PAW_PBE C_h 06Feb2004                 
 POTCAR:    PAW_PBE H 15Jun2001                   
 POTCAR:    PAW_PBE N_h 06Feb2004                 
 POTCAR:    PAW_PBE O_h 06Feb2004                 
 POTCAR:    PAW_PBE Ru_pv 28Jan2005               

 ----------------------------------------------------------------------------- 
|                                                                             |
|           W    W    AA    RRRRR   N    N  II  N    N   GGGG   !!!           |
|           W    W   A  A   R    R  NN   N  II  NN   N  G    G  !!!           |
|           W    W  A    A  R    R  N N  N  II  N N  N  G       !!!           |
|           W WW W  AAAAAA  RRRRR   N  N N  II  N  N N  G  GGG   !            |
|           WW  WW  A    A  R   R   N   NN  II  N   NN  G    G                |
|           W    W  A    A  R    R  N    N  II  N    N   GGGG   !!!           |
|                                                                             |
|      For optimal performance we recommend to set                            |
|        NCORE= 4 - approx SQRT( number of cores)                             |
|      NCORE specifies how many cores store one orbital (NPAR=cpu/NCORE).     |
|      This setting can  greatly improve the performance of VASP for DFT.     |
|      The default, NPAR=number of cores might be grossly inefficient         |
|      on modern multi-core architectures or massively parallel machines.     |
|      Do your own testing !!!!                                               |
|      Unfortunately you need to use the default for GW and RPA calculations. |
|      (for HF NCORE is supported but not extensively tested yet)             |
|                                                                             |
 ----------------------------------------------------------------------------- 

 POTCAR:    PAW_PBE C_h 06Feb2004                 
   VRHFIN =C: s2p2                                                              
   LEXCH  = PE                                                                  
   EATOM  =   147.1560 eV,   10.8157 Ry                                         
                                                                                
   TITEL  = PAW_PBE C_h 06Feb2004                                               
   LULTRA =        F    use ultrasoft PP ?                                      
   IUNSCR =        1    unscreen: 0-lin 1-nonlin 2-no                           
   RPACOR =    0.800    partial core radius                                     
   POMASS =   12.011; ZVAL   =    4.000    mass and valenz                      
   RCORE  =    1.100    outmost cutoff radius                                   
   RWIGS  =    1.630; RWIGS  =    0.863    wigner-seitz radius (au A)           
   ENMAX  =  700.000; ENMIN  =  500.000 eV                                      
   ICORE  =        2    local potential                                         
   LCOR   =        T    correct aug charges                                     
   LPAW   =        T    paw PP                                                  
   EAUG   =  946.768                                                            
   DEXC   =    0.000                                                            
   RMAX   =    1.128    core radius for proj-oper                               
   RAUG   =    1.300    factor for augmentation sphere                          
   RDEP   =    1.162    radius for radial grids                                 
   RDEPT  =    1.088    core radius for aug-charge                              
                                                                                
   Atomic configuration                                                         
    4 entries                                                                   
     n  l   j            E        occ.                                          
     1  0  0.50      -273.3789   2.0000                                         
     2  0  0.50       -13.7508   2.0000                                         
     2  1  0.50        -5.2854   2.0000                                         
     3  2  1.50        -5.4423   0.0000                                         
   Description                                                                  
     l       E           TYP  RCUT    TYP  RCUT                                 
     0    -13.7508458     23  1.100                                             
     0     -8.2022199     23  1.100                                             
     1     -5.2854383     23  1.100                                             
     1      1.1560700     23  1.100                                             
     2     -5.4423304      7  1.100                                             
  local pseudopotential read in
  partial core-charges read in
  partial kinetic energy density read in
  atomic valenz-charges read in
  non local Contribution for L=           0  read in
    real space projection operators read in
  non local Contribution for L=           0  read in
    real space projection operators read in
  non local Contribution for L=           1  read in
    real space projection operators read in
  non local Contribution for L=           1  read in
    real space projection operators read in
    PAW grid and wavefunctions read in
 
   number of l-projection  operators is LMAX  =           4
   number of lm-projection operators is LMMAX =           8
 
 POTCAR:    PAW_PBE C_h 06Feb2004                 
   VRHFIN =C: s2p2                                                              
   LEXCH  = PE                                                                  
   EATOM  =   147.1560 eV,   10.8157 Ry                                         
                                                                                
   TITEL  = PAW_PBE C_h 06Feb2004                                               
   LULTRA =        F    use ultrasoft PP ?                                      
   IUNSCR =        1    unscreen: 0-lin 1-nonlin 2-no                           
   RPACOR =    0.800    partial core radius                                     
   POMASS =   12.011; ZVAL   =    4.000    mass and valenz                      
   RCORE  =    1.100    outmost cutoff radius                                   
   RWIGS  =    1.630; RWIGS  =    0.863    wigner-seitz radius (au A)           
   ENMAX  =  700.000; ENMIN  =  500.000 eV                                      
   ICORE  =        2    local potential                                         
   LCOR   =        T    correct aug charges                                     
   LPAW   =        T    paw PP                                                  
   EAUG   =  946.768                                                            
   DEXC   =    0.000                                                            
   RMAX   =    1.128    core radius for proj-oper                               
   RAUG   =    1.300    factor for augmentation sphere                          
   RDEP   =    1.162    radius for radial grids                                 
   RDEPT  =    1.088    core radius for aug-charge                              
                                                                                
   Atomic configuration                                                         
    4 entries                                                                   
     n  l   j            E        occ.                                          
     1  0  0.50      -273.3789   2.0000                                         
     2  0  0.50       -13.7508   2.0000                                         
     2  1  0.50        -5.2854   2.0000                                         
     3  2  1.50        -5.4423   0.0000                                         
   Description                                                                  
     l       E           TYP  RCUT    TYP  RCUT                                 
     0    -13.7508458     23  1.100                                             
     0     -8.2022199     23  1.100                                             
     1     -5.2854383     23  1.100                                             
     1      1.1560700     23  1.100                                             
     2     -5.4423304      7  1.100                                             
  local pseudopotential read in
  partial core-charges read in
  partial kinetic energy density read in
  atomic valenz-charges read in
  non local Contribution for L=           0  read in
    real space projection operators read in
  non local Contribution for L=           0  read in
    real space projection operators read in
  non local Contribution for L=           1  read in
    real space projection operators read in
  non local Contribution for L=           1  read in
    real space projection operators read in
    PAW grid and wavefunctions read in
 
   number of l-projection  operators is LMAX  =           4
   number of lm-projection operators is LMMAX =           8
 
 POTCAR:    PAW_PBE H 15Jun2001                   
   VRHFIN =H: ultrasoft test                                                    
   LEXCH  = PE                                                                  
   EATOM  =    12.4884 eV,    0.9179 Ry                                         
                                                                                
   TITEL  = PAW_PBE H 15Jun2001                                                 
   LULTRA =        F    use ultrasoft PP ?                                      
   IUNSCR =        0    unscreen: 0-lin 1-nonlin 2-no                           
   RPACOR =    0.000    partial core radius                                     
   POMASS =    1.000; ZVAL   =    1.000    mass and valenz                      
   RCORE  =    1.100    outmost cutoff radius                                   
   RWIGS  =    0.700; RWIGS  =    0.370    wigner-seitz radius (au A)           
   ENMAX  =  250.000; ENMIN  =  200.000 eV                                      
   RCLOC  =    0.701    cutoff for local pot                                    
   LCOR   =        T    correct aug charges                                     
   LPAW   =        T    paw PP                                                  
   EAUG   =  400.000                                                            
   RMAX   =    1.123    core radius for proj-oper                               
   RAUG   =    1.200    factor for augmentation sphere                          
   RDEP   =    1.112    radius for radial grids                                 
   RDEPT  =    0.926    core radius for aug-charge                              
                                                                                
   Atomic configuration                                                         
    2 entries                                                                   
     n  l   j            E        occ.                                          
     1  0  0.50        -6.4927   1.0000                                         
     2  1  0.50        -3.4015   0.0000                                         
   Description                                                                  
     l       E           TYP  RCUT    TYP  RCUT                                 
     0     -6.4927494     23  1.100                                             
     0      6.8029130     23  1.100                                             
     1     -4.0817478     23  1.100                                             
  local pseudopotential read in
  atomic valenz-charges read in
  non local Contribution for L=           0  read in
    real space projection operators read in
  non local Contribution for L=           0  read in
    real space projection operators read in
  non local Contribution for L=           1  read in
    real space projection operators read in
    PAW grid and wavefunctions read in
 
   number of l-projection  operators is LMAX  =           3
   number of lm-projection operators is LMMAX =           5
 
 POTCAR:    PAW_PBE N_h 06Feb2004                 
   VRHFIN =N: s2p3                                                              
   LEXCH  = PE                                                                  
   EATOM  =   264.5486 eV,   19.4438 Ry                                         
                                                                                
   TITEL  = PAW_PBE N_h 06Feb2004                                               
   LULTRA =        F    use ultrasoft PP ?                                      
   IUNSCR =        1    unscreen: 0-lin 1-nonlin 2-no                           
   RPACOR =    0.800    partial core radius                                     
   POMASS =   14.001; ZVAL   =    5.000    mass and valenz                      
   RCORE  =    1.100    outmost cutoff radius                                   
   RWIGS  =    1.480; RWIGS  =    0.783    wigner-seitz radius (au A)           
   ENMAX  =  700.000; ENMIN  =  500.000 eV                                      
   ICORE  =        2    local potential                                         
   LCOR   =        T    correct aug charges                                     
   LPAW   =        T    paw PP                                                  
   EAUG   =  904.640                                                            
   DEXC   =    0.000                                                            
   RMAX   =    1.127    core radius for proj-oper                               
   RAUG   =    1.300    factor for augmentation sphere                          
   RDEP   =    1.115    radius for radial grids                                 
   RDEPT  =    1.106    core radius for aug-charge                              
                                                                                
   Atomic configuration                                                         
    4 entries                                                                   
     n  l   j            E        occ.                                          
     1  0  0.50      -384.7179   2.0000                                         
     2  0  0.50       -18.5828   2.0000                                         
     2  1  0.50        -7.0898   3.0000                                         
     3  2  1.50        -6.8029   0.0000                                         
   Description                                                                  
     l       E           TYP  RCUT    TYP  RCUT                                 
     0    -18.5828117     23  1.100                                             
     0    -15.0750597     23  1.100                                             
     1     -7.0897851     23  1.100                                             
     1     -1.9663412     23  1.100                                             
     2     -6.8029130      7  1.100                                             
  local pseudopotential read in
  partial core-charges read in
  partial kinetic energy density read in
  kinetic energy density of atom read in
  atomic valenz-charges read in
  non local Contribution for L=           0  read in
    real space projection operators read in
  non local Contribution for L=           0  read in
    real space projection operators read in
  non local Contribution for L=           1  read in
    real space projection operators read in
  non local Contribution for L=           1  read in
    real space projection operators read in
    PAW grid and wavefunctions read in
 
   number of l-projection  operators is LMAX  =           4
   number of lm-projection operators is LMMAX =           8
 
 POTCAR:    PAW_PBE O_h 06Feb2004                 
   VRHFIN =O: s2p4                                                              
   LEXCH  = PE                                                                  
   EATOM  =   432.3788 eV,   31.7789 Ry                                         
                                                                                
   TITEL  = PAW_PBE O_h 06Feb2004                                               
   LULTRA =        F    use ultrasoft PP ?                                      
   IUNSCR =        1    unscreen: 0-lin 1-nonlin 2-no                           
   RPACOR =    0.800    partial core radius                                     
   POMASS =   16.000; ZVAL   =    6.000    mass and valenz                      
   RCORE  =    1.100    outmost cutoff radius                                   
   RWIGS  =    1.400; RWIGS  =    0.741    wigner-seitz radius (au A)           
   ENMAX  =  700.000; ENMIN  =  500.000 eV                                      
   ICORE  =        2    local potential                                         
   LCOR   =        T    correct aug charges                                     
   LPAW   =        T    paw PP                                                  
   EAUG   =  888.804                                                            
   DEXC   =    0.000                                                            
   RMAX   =    1.128    core radius for proj-oper                               
   RAUG   =    1.300    factor for augmentation sphere                          
   RDEP   =    1.125    radius for radial grids                                 
   RDEPT  =    1.088    core radius for aug-charge                              
                                                                                
   Atomic configuration                                                         
    4 entries                                                                   
     n  l   j            E        occ.                                          
     1  0  0.50      -514.6923   2.0000                                         
     2  0  0.50       -23.9615   2.0000                                         
     2  1  0.50        -9.0305   4.0000                                         
     3  2  1.50        -9.5241   0.0000                                         
   Description                                                                  
     l       E           TYP  RCUT    TYP  RCUT                                 
     0    -23.9615319     23  1.100                                             
     0    -25.3221145     23  1.100                                             
     1     -9.0304911     23  1.100                                             
     1     -5.4802209     23  1.100                                             
     2     -9.5240782      7  1.100                                             
  local pseudopotential read in
  partial core-charges read in
  partial kinetic energy density read in
  atomic valenz-charges read in
  non local Contribution for L=           0  read in
    real space projection operators read in
  non local Contribution for L=           0  read in
    real space projection operators read in
  non local Contribution for L=           1  read in
    real space projection operators read in
  non local Contribution for L=           1  read in
    real space projection operators read in
    PAW grid and wavefunctions read in
 
   number of l-projection  operators is LMAX  =           4
   number of lm-projection operators is LMMAX =           8
 
 POTCAR:    PAW_PBE Ru_pv 28Jan2005               
   VRHFIN =Ru: 4p5s4d                                                           
   LEXCH  = PE                                                                  
   EATOM  =  1873.4746 eV,  137.6965 Ry                                         
                                                                                
   TITEL  = PAW_PBE Ru_pv 28Jan2005                                             
   LULTRA =        F    use ultrasoft PP ?                                      
   IUNSCR =        1    unscreen: 0-lin 1-nonlin 2-no                           
   RPACOR =    2.170    partial core radius                                     
   POMASS =  101.070; ZVAL   =   14.000    mass and valenz                      
   RCORE  =    2.500    outmost cutoff radius                                   
   RWIGS  =    2.650; RWIGS  =    1.402    wigner-seitz radius (au A)           
   ENMAX  =  240.049; ENMIN  =  180.037 eV                                      
   ICORE  =        3    local potential                                         
   LCOR   =        T    correct aug charges                                     
   LPAW   =        T    paw PP                                                  
   EAUG   =  430.792                                                            
   DEXC   =    0.000                                                            
   RMAX   =    2.546    core radius for proj-oper                               
   RAUG   =    1.300    factor for augmentation sphere                          
   RDEP   =    2.520    radius for radial grids                                 
   RDEPT  =    2.044    core radius for aug-charge                              
                                                                                
   Atomic configuration                                                         
   11 entries                                                                   
     n  l   j            E        occ.                                          
     1  0  0.50    -21933.2692   2.0000                                         
     2  0  0.50     -3153.4096   2.0000                                         
     2  1  1.50     -2823.9548   6.0000                                         
     3  0  0.50      -555.3322   2.0000                                         
     3  1  1.50      -447.1024   6.0000                                         
     3  2  2.50      -273.0570  10.0000                                         
     4  0  0.50       -76.3589   2.0000                                         
     4  1  1.50       -46.4050   6.0000                                         
     4  2  2.50        -5.2029   7.0000                                         
     5  0  0.50        -4.2392   1.0000                                         
     4  3  2.50        -1.3606   0.0000                                         
   Description                                                                  
     l       E           TYP  RCUT    TYP  RCUT                                 
     1    -46.4050190     23  2.100                                             
     1      4.0817478     23  2.100                                             
     2     -5.2028758     23  2.500                                             
     2     -6.5634584     23  2.500                                             
     0     -4.2392192     23  2.500                                             
     0      7.0918828     23  2.500                                             
     3     -5.4423304     23  2.500                                             
  local pseudopotential read in
  partial core-charges read in
  partial kinetic energy density read in
  atomic valenz-charges read in
  non local Contribution for L=           1  read in
    real space projection operators read in
  non local Contribution for L=           1  read in
    real space projection operators read in
  non local Contribution for L=           2  read in
    real space projection operators read in
  non local Contribution for L=           2  read in
    real space projection operators read in
  non local Contribution for L=           0  read in
    real space projection operators read in
  non local Contribution for L=           0  read in
    real space projection operators read in
    PAW grid and wavefunctions read in
 
   number of l-projection  operators is LMAX  =           6
   number of lm-projection operators is LMMAX =          18
 
 Optimization of the real space projectors (new method)

 maximal supplied QI-value         = 34.20
 optimisation between [QCUT,QGAM] = [ 13.34, 27.02] = [ 49.83,204.46] Ry 
 Optimized for a Real-space Cutoff    1.04 Angstroem

   l    n(q)    QCUT    max X(q) W(low)/X(q) W(high)/X(q)  e(spline) 
   0      8    13.340   134.812    0.72E-04    0.21E-03    0.27E-06
   0      8    13.340    80.524    0.70E-04    0.21E-03    0.27E-06
   1      8    13.340    79.026    0.21E-03    0.16E-03    0.33E-06
   1      8    13.340    45.188    0.20E-03    0.15E-03    0.33E-06
 Optimization of the real space projectors (new method)

 maximal supplied QI-value         = 34.20
 optimisation between [QCUT,QGAM] = [ 13.34, 27.02] = [ 49.83,204.46] Ry 
 Optimized for a Real-space Cutoff    1.04 Angstroem

   l    n(q)    QCUT    max X(q) W(low)/X(q) W(high)/X(q)  e(spline) 
   0      8    13.340   134.812    0.72E-04    0.21E-03    0.27E-06
   0      8    13.340    80.524    0.70E-04    0.21E-03    0.27E-06
   1      8    13.340    79.026    0.21E-03    0.16E-03    0.33E-06
   1      8    13.340    45.188    0.20E-03    0.15E-03    0.33E-06
 Optimization of the real space projectors (new method)

 maximal supplied QI-value         = 34.20
 optimisation between [QCUT,QGAM] = [ 13.34, 27.02] = [ 49.83,204.46] Ry 
 Optimized for a Real-space Cutoff    0.98 Angstroem

   l    n(q)    QCUT    max X(q) W(low)/X(q) W(high)/X(q)  e(spline) 
   0      8    13.340    19.460    0.18E-03    0.41E-04    0.19E-06
   0      8    13.340    12.209    0.17E-03    0.45E-04    0.18E-06
   1      7    13.340     4.655    0.16E-03    0.30E-03    0.14E-06
 Optimization of the real space projectors (new method)

 maximal supplied QI-value         = 34.20
 optimisation between [QCUT,QGAM] = [ 13.34, 27.02] = [ 49.83,204.46] Ry 
 Optimized for a Real-space Cutoff    1.04 Angstroem

   l    n(q)    QCUT    max X(q) W(low)/X(q) W(high)/X(q)  e(spline) 
   0      8    13.340   148.539    0.85E-04    0.19E-03    0.21E-06
   0      8    13.340   106.192    0.84E-04    0.19E-03    0.21E-06
   1      8    13.340    73.877    0.18E-03    0.11E-03    0.36E-06
   1      8    13.340    50.042    0.17E-03    0.11E-03    0.36E-06
 Optimization of the real space projectors (new method)

 maximal supplied QI-value         = 34.20
 optimisation between [QCUT,QGAM] = [ 13.34, 27.02] = [ 49.83,204.46] Ry 
 Optimized for a Real-space Cutoff    0.98 Angstroem

   l    n(q)    QCUT    max X(q) W(low)/X(q) W(high)/X(q)  e(spline) 
   0      8    13.340   280.207    0.16E-03    0.35E-03    0.14E-06
   0      8    13.340   228.978    0.16E-03    0.35E-03    0.14E-06
   1      7    13.340    86.127    0.23E-03    0.25E-04    0.30E-06
   1      7    13.340    65.368    0.22E-03    0.27E-04    0.30E-06
 Optimization of the real space projectors (new method)

 maximal supplied QI-value         = 15.12
 optimisation between [QCUT,QGAM] = [ 13.45, 27.06] = [ 50.69,205.06] Ry 
 Optimized for a Real-space Cutoff    1.40 Angstroem

   l    n(q)    QCUT    max X(q) W(low)/X(q) W(high)/X(q)  e(spline) 
   1     11    13.455     3.180    0.18E-04    0.25E-04    0.55E-07
   1     11    13.455     5.351    0.12E-03    0.15E-03    0.24E-06
   2     10    13.455    66.565    0.13E-03    0.46E-04    0.26E-06
   2     10    13.455    63.466    0.13E-03    0.47E-04    0.27E-06
   0     11    13.455    85.644    0.47E-04    0.16E-04    0.33E-06
   0     11    13.455    44.119    0.43E-04    0.15E-04    0.30E-06
  PAW_PBE C_h 06Feb2004                 :
 energy of atom  1       EATOM= -147.1560
 kinetic energy error for atom=    0.0286 (will be added to EATOM!!)
  PAW_PBE C_h 06Feb2004                 :
 energy of atom  2       EATOM= -147.1560
 kinetic energy error for atom=    0.0286 (will be added to EATOM!!)
  PAW_PBE H 15Jun2001                   :
 energy of atom  3       EATOM=  -12.4884
 kinetic energy error for atom=    0.0002 (will be added to EATOM!!)
  PAW_PBE N_h 06Feb2004                 :
 energy of atom  4       EATOM= -264.5486
 kinetic energy error for atom=    0.0847 (will be added to EATOM!!)
  PAW_PBE O_h 06Feb2004                 :
 energy of atom  5       EATOM= -432.3788
 kinetic energy error for atom=    0.1855 (will be added to EATOM!!)
  PAW_PBE Ru_pv 28Jan2005               :
 energy of atom  6       EATOM=-1873.4746
 kinetic energy error for atom=    0.0017 (will be added to EATOM!!)
 
 
 POSCAR: C C H N O Ru                            
  positions in direct lattice
  velocities in cartesian coordinates
 exchange correlation table for  LEXCH =        8
   RHO(1)=    0.500       N(1)  =     2000
   RHO(2)=  100.500       N(2)  =     4000
 


--------------------------------------------------------------------------------------------------------


 ion  position               nearest neighbor table
   1  0.640  0.469  0.567-  53 1.37  15 1.40   9 1.47
   2  0.438  0.566  0.328-  43 1.09   3 1.39   6 1.39
   3  0.456  0.524  0.381-  38 1.09  49 1.36   2 1.39
   4  0.474  0.615  0.450-  34 1.09  49 1.36   5 1.39
   5  0.456  0.660  0.399-  33 1.09   4 1.39   6 1.40
   6  0.438  0.635  0.337-  32 1.09   2 1.39   5 1.40
   7  0.523  0.330  0.675-  26 1.09   8 1.39  16 1.40
   8  0.497  0.372  0.626-  31 1.09  51 1.36   7 1.39
   9  0.602  0.419  0.606-  51 1.37  10 1.40   1 1.47
  10  0.631  0.378  0.654-  28 1.09  16 1.39   9 1.40
  11  0.740  0.529  0.535-  41 1.09  15 1.39  12 1.40
  12  0.701  0.566  0.490-  37 1.09  13 1.39  11 1.40
  13  0.633  0.554  0.487-  47 1.09  53 1.36  12 1.39
  14  0.293  0.477  0.568-  45 1.09  25 1.39  17 1.40
  15  0.708  0.480  0.573-  36 1.09  11 1.39   1 1.40
  16  0.591  0.332  0.689-  27 1.09  10 1.39   7 1.40
  17  0.362  0.489  0.564-  50 1.37  14 1.40  21 1.46
  18  0.408  0.622  0.691-  48 1.09  22 1.39  19 1.40
  19  0.476  0.626  0.677-  44 1.09  20 1.39  18 1.40
  20  0.503  0.586  0.627-  42 1.09  52 1.36  19 1.39
  21  0.398  0.538  0.604-  52 1.38  22 1.40  17 1.46
  22  0.369  0.578  0.654-  30 1.09  18 1.39  21 1.40
  23  0.373  0.406  0.482-  39 1.09  50 1.35  24 1.39
  24  0.305  0.392  0.484-  40 1.09  23 1.39  25 1.40
  25  0.264  0.428  0.528-  46 1.09  14 1.39  24 1.40
  26  0.490  0.295  0.701-   7 1.09
  27  0.613  0.300  0.727-  16 1.09
  28  0.684  0.381  0.665-  10 1.09
  29  0.542  0.362  0.461-  54 0.97
  30  0.316  0.573  0.664-  22 1.09
  31  0.444  0.371  0.614-   8 1.09
  32  0.424  0.668  0.296-   6 1.09
  33  0.456  0.713  0.410-   5 1.09
  34  0.488  0.634  0.499-   4 1.09
  35  0.569  0.418  0.415-  54 0.98
  36  0.738  0.450  0.608-  15 1.09
  37  0.723  0.605  0.459-  12 1.09
  38  0.456  0.470  0.375-   3 1.09
  39  0.406  0.379  0.449-  23 1.09
  40  0.284  0.353  0.452-  24 1.09
  41  0.793  0.537  0.539-  11 1.09
  42  0.556  0.588  0.614-  20 1.09
  43  0.424  0.543  0.280-   2 1.09
  44  0.509  0.660  0.704-  19 1.09
  45  0.263  0.506  0.603-  14 1.09
  46  0.211  0.418  0.531-  25 1.09
  47  0.601  0.582  0.453-  13 1.09
  48  0.385  0.653  0.729-  18 1.09
  49  0.474  0.548  0.441-   4 1.36   3 1.36  55 2.12
  50  0.402  0.453  0.521-  23 1.35  17 1.37  55 2.06
  51  0.535  0.416  0.592-   8 1.36   9 1.37  55 2.06
  52  0.465  0.543  0.590-  20 1.36  21 1.38  55 2.01
  53  0.601  0.507  0.524-  13 1.36   1 1.37  55 2.08
  54  0.531  0.406  0.442-  29 0.97  35 0.98  55 2.24
  55  0.501  0.481  0.519-  52 2.01  50 2.06  51 2.06  53 2.08  49 2.12  54 2.24
 
  LATTYP: Found a simple cubic cell.
 ALAT       =    20.0000000000
  
  Lattice vectors:
  
 A1 = (  20.0000000000,   0.0000000000,   0.0000000000)
 A2 = (   0.0000000000,  20.0000000000,   0.0000000000)
 A3 = (   0.0000000000,   0.0000000000,  20.0000000000)


Analysis of symmetry for initial positions (statically):
=====================================================================
 Subroutine PRICEL returns:
 Original cell was already a primitive cell.
 

 Routine SETGRP: Setting up the symmetry group for a 
 simple cubic supercell.


 Subroutine GETGRP returns: Found  1 space group operations
 (whereof  1 operations were pure point group operations)
 out of a pool of 48 trial point group operations.


The static configuration has the point symmetry C_1 .


Analysis of symmetry for dynamics (positions and initial velocities):
=====================================================================
 Subroutine PRICEL returns:
 Original cell was already a primitive cell.
 

 Routine SETGRP: Setting up the symmetry group for a 
 simple cubic supercell.


 Subroutine GETGRP returns: Found  1 space group operations
 (whereof  1 operations were pure point group operations)
 out of a pool of 48 trial point group operations.


The dynamic configuration has the point symmetry C_1 .


Analysis of constrained symmetry for selective dynamics:
=====================================================================
 Subroutine PRICEL returns:
 Original cell was already a primitive cell.
 

 Routine SETGRP: Setting up the symmetry group for a 
 simple cubic supercell.


 Subroutine GETGRP returns: Found  1 space group operations
 (whereof  1 operations were pure point group operations)
 out of a pool of 48 trial point group operations.


The constrained configuration has the point symmetry C_1 .


Analysis of magnetic symmetry:
=====================================================================
 Subroutine PRICEL returns:
 Original cell was already a primitive cell.
 

 Subroutine MAGSYM returns: Found  1 space group operations
 (whereof  1 operations were pure point group operations)
 out of a pool of  1 trial space group operations
 (whereof  1 operations were pure point group operations)
 and found also     1 'primitive' translations


The magnetic configuration has the point symmetry C_1 .
 
 
 KPOINTS: K-Points                                

Automatic generation of k-mesh.
Space group operators:
 irot       det(A)        alpha          n_x          n_y          n_z        tau_x        tau_y        tau_z
    1     1.000000     0.000000     1.000000     0.000000     0.000000     0.000000     0.000000     0.000000
 
 Subroutine IBZKPT returns following result:
 ===========================================
 
 Found      1 irreducible k-points:
 
 Following reciprocal coordinates:
            Coordinates               Weight
  0.000000  0.000000  0.000000      1.000000
 
 Following cartesian coordinates:
            Coordinates               Weight
  0.000000  0.000000  0.000000      1.000000
 


--------------------------------------------------------------------------------------------------------




 Dimension of arrays:
   k-points           NKPTS =      1   k-points in BZ     NKDIM =      1   number of bands    NBANDS=    128
   number of dos      NEDOS =    301   number of ions     NIONS =     55
   non local maximal  LDIM  =      6   non local SUM 2l+1 LMDIM =     18
   total plane-waves  NPLWV = ******
   max r-space proj   IRMAX =   8473   max aug-charges    IRDMAX= 268848
   dimension x,y,z NGX =   180 NGY =  180 NGZ =  180
   dimension x,y,z NGXF=   360 NGYF=  360 NGZF=  360
   support grid    NGXF=   720 NGYF=  720 NGZF=  720
   ions per type =               1  24  23   5   1   1
 NGX,Y,Z   is equivalent  to a cutoff of  14.96, 14.96, 14.96 a.u.
 NGXF,Y,Z  is equivalent  to a cutoff of  29.92, 29.92, 29.92 a.u.


 I would recommend the setting:
   dimension x,y,z NGX =   173 NGY =  173 NGZ =  173
 SYSTEM =  c2_oh2_ruthenium_mol                    
 POSCAR =  C C H N O Ru                            

 Startparameter for this run:
   NWRITE =      2    write-flag & timer
   PREC   = accura    normal or accurate (medium, high low for compatibility)
   ISTART =      0    job   : 0-new  1-cont  2-samecut
   ICHARG =      2    charge: 1-file 2-atom 10-const
   ISPIN  =      2    spin polarized calculation?
   LNONCOLLINEAR =      F non collinear calculations
   LSORBIT =      F    spin-orbit coupling
   INIWAV =      1    electr: 0-lowe 1-rand  2-diag
   LASPH  =      F    aspherical Exc in radial PAW
   METAGGA=      F    non-selfconsistent MetaGGA calc.

 Electronic Relaxation 1
   ENCUT  =  700.0 eV  51.45 Ry    7.17 a.u.  43.15 43.15 43.15*2*pi/ulx,y,z
   ENINI  =  700.0     initial cutoff
   ENAUG  =  946.8 eV  augmentation charge cutoff
   NELM   =     60;   NELMIN=  2; NELMDL= -5     # of ELM steps 
   EDIFF  = 0.1E-04   stopping-criterion for ELM
   LREAL  =      T    real-space projection
   NLSPLINE    = F    spline interpolate recip. space projectors
   LCOMPAT=      F    compatible to vasp.4.4
   GGA_COMPAT  = T    GGA compatible to vasp.4.4-vasp.4.6
   LMAXPAW     = -100 max onsite density
   LMAXMIX     =    2 max onsite mixed and CHGCAR
   VOSKOWN=      0    Vosko Wilk Nusair interpolation
   ROPT   =   -0.00025  -0.00025  -0.00025  -0.00025
   ROPT   =   -0.00025  -0.00025
 Ionic relaxation
   EDIFFG = -.1E-01   stopping-criterion for IOM
   NSW    =      0    number of steps for IOM
   NBLOCK =      1;   KBLOCK =      1    inner block; outer block 
   IBRION =     -1    ionic relax: 0-MD 1-quasi-New 2-CG
   NFREE  =      0    steps in history (QN), initial steepest desc. (CG)
   ISIF   =      2    stress and relaxation
   IWAVPR =     10    prediction:  0-non 1-charg 2-wave 3-comb
   ISYM   =      2    0-nonsym 1-usesym 2-fastsym
   LCORR  =      T    Harris-Foulkes like correction to forces

   POTIM  = 0.5000    time-step for ionic-motion
   TEIN   =    0.0    initial temperature
   TEBEG  =    0.0;   TEEND  =   0.0 temperature during run
   SMASS  =  -3.00    Nose mass-parameter (am)
   estimated Nose-frequenzy (Omega)   =  0.10E-29 period in steps =****** mass=  -0.914E-26a.u.
   SCALEE = 1.0000    scale energy and forces
   NPACO  =    256;   APACO  = 16.0  distance and # of slots for P.C.
   PSTRESS=    0.0 pullay stress

  Mass of Ions in am
   POMASS =  12.01 12.01  1.00 14.00 16.00101.07
  Ionic Valenz
   ZVAL   =   4.50  4.00  1.00  5.00  6.00 14.00
  Atomic Wigner-Seitz radii
   RWIGS  =  -1.00 -1.00 -1.00 -1.00 -1.00 -1.00
  virtual crystal weights 
   VCA    =   1.00  1.00  1.00  1.00  1.00  1.00
   NELECT =     166.0000    total number of electrons
   NUPDOWN=       0.0000    fix difference up-down

 DOS related values:
   EMIN   =  10.00;   EMAX   =-10.00  energy-range for DOS
   EFERMI =   0.00
   ISMEAR =     0;   SIGMA  =   0.01  broadening in eV -4-tet -1-fermi 0-gaus

 Electronic relaxation 2 (details)
   IALGO  =     38    algorithm
   LDIAG  =      T    sub-space diagonalisation (order eigenvalues)
   LSUBROT=      F    optimize rotation matrix (better conditioning)
   TURBO    =      0    0=normal 1=particle mesh
   IRESTART =      0    0=no restart 2=restart with 2 vectors
   NREBOOT  =      0    no. of reboots
   NMIN     =      0    reboot dimension
   EREF     =   0.00    reference energy to select bands
   IMIX   =      4    mixing-type and parameters
     AMIX     =   0.40;   BMIX     =  2.00
     AMIX_MAG =   1.60;   BMIX_MAG =  2.00
     AMIN     =   0.10
     WC   =   100.;   INIMIX=   1;  MIXPRE=   1;  MAXMIX= -45

 Intra band minimization:
   WEIMIN = 0.0000     energy-eigenvalue tresh-hold
   EBREAK =  0.20E-07  absolut break condition
   DEPER  =   0.30     relativ break condition  

   TIME   =   0.05     timestep for ELM

  volume/ion in A,a.u.               =     145.45       981.58
  Fermi-wavevector in a.u.,A,eV,Ry     =   0.449864  0.850119  2.753510  0.202377
  Thomas-Fermi vector in A             =   1.430192
 
 Write flags
   LWAVE  =      T    write WAVECAR
   LCHARG =      T    write CHGCAR
   LVTOT  =      F    write LOCPOT, total local potential
   LVHAR  =      F    write LOCPOT, Hartree potential only
   LELF   =      F    write electronic localiz. function (ELF)
   LORBIT =      0    0 simple, 1 ext, 2 COOP (PROOUT)


 Dipole corrections
   LMONO  =      F    monopole corrections only (constant potential shift)
   LDIPOL =      F    correct potential (dipole corrections)
   IDIPOL =      0    1-x, 2-y, 3-z, 4-all directions 
   EPSILON=  1.0000000 bulk dielectric constant

 Core level calculations are selected ICORELEVEL =  2
  CLNT =           1       CLN =     1
  CLL  =           0       CLZ = 0.500
 Exchange correlation treatment:
   GGA     =    --    GGA type
   LEXCH   =     8    internal setting for exchange type
   VOSKOWN=      0    Vosko Wilk Nusair interpolation
   LHFCALC =     F    Hartree Fock is set to
   LHFONE  =     F    Hartree Fock one center treatment
   AEXX    =    0.0000 exact exchange contribution

 Linear response parameters
   LEPSILON=     F    determine dielectric tensor
   LRPA    =     F    only Hartree local field effects (RPA)
   LNABLA  =     F    use nabla operator in PAW spheres
   LVEL    =     F    velocity operator in full k-point grid
   LINTERFAST=   F  fast interpolation
   KINTER  =     0    interpolate to denser k-point grid
   CSHIFT  =0.1000    complex shift for real part using Kramers Kronig
   OMEGAMAX=  -1.0    maximum frequency
   DEG_THRESHOLD= 0.2000000E-02 threshold for treating states as degnerate
   RTIME   =    0.100 relaxation time in fs

 Orbital magnetization related:
   ORBITALMAG=     F  switch on orbital magnetization
   LCHIMAG   =     F  perturbation theory with respect to B field
   DQ        =  0.001000  dq finite difference perturbation B field



--------------------------------------------------------------------------------------------------------


 Static calculation
 charge density and potential will be updated during run
 spin polarized calculation
 Variant of blocked Davidson
 Davidson routine will perform the subspace rotation
 perform sub-space diagonalisation
    after iterative eigenvector-optimisation
 modified Broyden-mixing scheme, WC =      100.0
 initial mixing is a Kerker type mixing with AMIX =  0.4000 and BMIX =      2.0000
 Hartree-type preconditioning will be used
 using additional bands           45
 real space projection scheme for non local part
 use partial core corrections
 calculate Harris-corrections to forces 
   (improved forces if not selfconsistent)
 use gradient corrections 
 use of overlap-Matrix (Vanderbilt PP)
 Gauss-broadening in eV      SIGMA  =   0.01


--------------------------------------------------------------------------------------------------------


  energy-cutoff  :      700.00
  volume of cell :     8000.00
      direct lattice vectors                 reciprocal lattice vectors
    20.000000000  0.000000000  0.000000000     0.050000000  0.000000000  0.000000000
     0.000000000 20.000000000  0.000000000     0.000000000  0.050000000  0.000000000
     0.000000000  0.000000000 20.000000000     0.000000000  0.000000000  0.050000000

  length of vectors
    20.000000000 20.000000000 20.000000000     0.050000000  0.050000000  0.050000000


 
 k-points in units of 2pi/SCALE and weight: K-Points                                
   0.00000000  0.00000000  0.00000000       1.000
 
 k-points in reciprocal lattice and weights: K-Points                                
   0.00000000  0.00000000  0.00000000       1.000
 
 position of ions in fractional coordinates (direct lattice) 
   0.63952130  0.46927713  0.56732841
   0.43793752  0.56561110  0.32757008
   0.45581208  0.52423376  0.38051465
   0.47372925  0.61530131  0.44986522
   0.45595175  0.65963312  0.39935201
   0.43785737  0.63472201  0.33675972
   0.52307882  0.32955005  0.67474498
   0.49710163  0.37190466  0.62618823
   0.60227374  0.41933300  0.60593616
   0.63096398  0.37761922  0.65422416
   0.73964927  0.52855915  0.53463181
   0.70082162  0.56612858  0.49044049
   0.63257913  0.55363620  0.48652424
   0.29334713  0.47671938  0.56830116
   0.70843899  0.47974495  0.57314689
   0.59134754  0.33224398  0.68903016
   0.36211554  0.48866484  0.56417415
   0.40790931  0.62211625  0.69058213
   0.47619960  0.62606623  0.67660612
   0.50295190  0.58590820  0.62668073
   0.39825425  0.53800137  0.60426081
   0.36904589  0.57756069  0.65398228
   0.37289802  0.40579857  0.48223443
   0.30486503  0.39173492  0.48443166
   0.26422003  0.42785518  0.52821594
   0.48989745  0.29510618  0.70074864
   0.61334240  0.29968355  0.72673159
   0.68424189  0.38076917  0.66478776
   0.54225374  0.36233861  0.46129841
   0.31579090  0.57306911  0.66420366
   0.44416348  0.37118871  0.61364770
   0.42392665  0.66833230  0.29622671
   0.45642762  0.71313270  0.40950260
   0.48809132  0.63358802  0.49907234
   0.56912778  0.41808713  0.41480476
   0.73767440  0.44963919  0.60776512
   0.72277620  0.60481012  0.45904817
   0.45570253  0.47012894  0.37468790
   0.40614333  0.37888556  0.44852541
   0.28443799  0.35306162  0.45202062
   0.79326502  0.53703787  0.53892527
   0.55589708  0.58769132  0.61440612
   0.42412006  0.54328620  0.27986105
   0.50894741  0.65984570  0.70400156
   0.26265982  0.50568523  0.60265428
   0.21072272  0.41813760  0.53105039
   0.60090654  0.58197914  0.45254259
   0.38544357  0.65296704  0.72941133
   0.47424490  0.54794204  0.44140236
   0.40180479  0.45306079  0.52108436
   0.53520702  0.41608490  0.59173240
   0.46544808  0.54254992  0.59041194
   0.60138410  0.50650621  0.52397638
   0.53073984  0.40562607  0.44215451
   0.50088568  0.48087016  0.51934246
 
 position of ions in cartesian coordinates  (Angst):
  12.79042597  9.38554253 11.34656829
   8.75875044 11.31222209  6.55140167
   9.11624161 10.48467523  7.61029296
   9.47458509 12.30602619  8.99730442
   9.11903505 13.19266234  7.98704025
   8.75714739 12.69444028  6.73519441
  10.46157638  6.59100110 13.49489953
   9.94203263  7.43809325 12.52376455
  12.04547477  8.38665999 12.11872314
  12.61927957  7.55238445 13.08448329
  14.79298537 10.57118301 10.69263621
  14.01643234 11.32257164  9.80880974
  12.65158254 11.07272405  9.73048485
   5.86694270  9.53438759 11.36602327
  14.16877978  9.59489901 11.46293786
  11.82695089  6.64487969 13.78060313
   7.24231077  9.77329687 11.28348299
   8.15818611 12.44232505 13.81164268
   9.52399198 12.52132464 13.53212240
  10.05903801 11.71816400 12.53361469
   7.96508499 10.76002740 12.08521614
   7.38091777 11.55121387 13.07964553
   7.45796037  8.11597149  9.64468853
   6.09730063  7.83469839  9.68863321
   5.28440067  8.55710369 10.56431882
   9.79794892  5.90212351 14.01497288
  12.26684793  5.99367109 14.53463185
  13.68483783  7.61538334 13.29575520
  10.84507475  7.24677213  9.22596819
   6.31581791 11.46138226 13.28407311
   8.88326966  7.42377422 12.27295397
   8.47853309 13.36664601  5.92453423
   9.12855243 14.26265408  8.19005201
   9.76182647 12.67176037  9.98144677
  11.38255564  8.36174255  8.29609511
  14.75348806  8.99278384 12.15530242
  14.45552391 12.09620238  9.18096343
   9.11405064  9.40257887  7.49375804
   8.12286663  7.57771114  8.97050829
   5.68875982  7.06123239  9.04041232
  15.86530045 10.74075733 10.77850539
  11.11794158 11.75382641 12.28812234
   8.48240128 10.86572407  5.59722093
  10.17894811 13.19691406 14.08003122
   5.25319634 10.11370460 12.05308551
   4.21445446  8.36275200 10.62100772
  12.01813087 11.63958272  9.05085175
   7.70887141 13.05934086 14.58822659
   9.48489793 10.95884088  8.82804729
   8.03609572  9.06121573 10.42168714
  10.70414049  8.32169803 11.83464804
   9.30896151 10.85099836 11.80823871
  12.02768196 10.13012430 10.47952760
  10.61479684  8.11252146  8.84309019
  10.01771355  9.61740316 10.38684921
 


--------------------------------------------------------------------------------------------------------


 k-point  1 :   0.0000 0.0000 0.0000  plane waves:  336427

 maximum and minimum number of plane-waves per node :    336427   336427

 maximum number of plane-waves:    336427
 maximum index in each direction: 
   IXMAX=   43   IYMAX=   43   IZMAX=   43
   IXMIN=  -43   IYMIN=  -43   IZMIN=  -43

 NGX is ok and might be reduce to 174
 NGY is ok and might be reduce to 174
 NGZ is ok and might be reduce to 174

 serial   3D FFT for wavefunctions
 parallel 3D FFT for charge:
    minimum data exchange during FFTs selected (reduces bandwidth)


 total amount of memory used by VASP on root node   877132. kBytes
========================================================================

   base      :      30000. kBytes
   nonlr-proj:      19361. kBytes
   fftplans  :     269516. kBytes
   grid      :     534988. kBytes
   one-center:       1710. kBytes
   wavefun   :      21557. kBytes
 
     INWAV:  cpu time    0.00: real time    0.00
 Broyden mixing: mesh for mixing (old mesh)
   NGX = 87   NGY = 87   NGZ = 87
  (NGX  =360   NGY  =360   NGZ  =360)
  gives a total of 658503 points

 initial charge density was supplied:
 charge density of overlapping atoms calculated
 number of electron     168.5000000 magnetization       0.0000000
 keeping initial charge density in first step


--------------------------------------------------------------------------------------------------------


 Maximum index for non-local projection operator         8166
 Maximum index for augmentation-charges         3214 (set IRDMAX)


--------------------------------------------------------------------------------------------------------


 First call to EWALD:  gamma=   0.089
 Maximum number of real-space cells 3x 3x 3
 Maximum number of reciprocal cells 3x 3x 3

 FEWALD executed in parallel
    FEWALD:  cpu time    0.00: real time    0.00


----------------------------------------- Iteration    1(   1)  ---------------------------------------


    POTLOK:  cpu time    4.68: real time    4.79
    SETDIJ:  cpu time    2.80: real time    2.82
     EDDAV:  cpu time   14.78: real time   15.71
       DOS:  cpu time    0.02: real time    0.02
    --------------------------------------------
      LOOP:  cpu time   22.28: real time   23.33

 eigenvalue-minimisations  :   768
 total energy-change (2. order) : 0.9110573E+03  (-0.5879924E+04)
 number of electron     168.5000000 magnetization       0.0000000
 augmentation part      168.5000000 magnetization       0.0000000

 Free energy of the ion-electron system (eV)
  ---------------------------------------------------
  alpha Z        PSCENC =        12.91687988
  Ewald energy   TEWEN  =     23333.82222168
  -Hartree energ DENC   =    -28935.53693007
  -exchange      EXHF   =         0.00000000
  -V(xc)+E(xc)   XCENC  =       401.01568461
  PAW double counting   =      5890.45591622    -5710.10246236
  entropy T*S    EENTRO =        -0.00001971
  eigenvalues    EBANDS =     -1674.91391102
  atomic energy  EATOM  =      7593.39991119
  ---------------------------------------------------
  free energy    TOTEN  =       911.05729042 eV

  energy without entropy =      911.05731013  energy(sigma->0) =      911.05730028


--------------------------------------------------------------------------------------------------------




----------------------------------------- Iteration    1(   2)  ---------------------------------------


     EDDAV:  cpu time   19.19: real time   20.23
       DOS:  cpu time    0.02: real time    0.02
    --------------------------------------------
      LOOP:  cpu time   19.21: real time   20.24

 eigenvalue-minimisations  :  1024
 total energy-change (2. order) :-0.9799545E+03  (-0.9738589E+03)
 number of electron     168.5000000 magnetization       0.0000000
 augmentation part      168.5000000 magnetization       0.0000000

 Free energy of the ion-electron system (eV)
  ---------------------------------------------------
  alpha Z        PSCENC =        12.91687988
  Ewald energy   TEWEN  =     23333.82222168
  -Hartree energ DENC   =    -28935.53693007
  -exchange      EXHF   =         0.00000000
  -V(xc)+E(xc)   XCENC  =       401.01568461
  PAW double counting   =      5890.45591622    -5710.10246236
  entropy T*S    EENTRO =        -0.00000000
  eigenvalues    EBANDS =     -2654.86847636
  atomic energy  EATOM  =      7593.39991119
  ---------------------------------------------------
  free energy    TOTEN  =       -68.89725521 eV

  energy without entropy =      -68.89725521  energy(sigma->0) =      -68.89725521


--------------------------------------------------------------------------------------------------------




----------------------------------------- Iteration    1(   3)  ---------------------------------------


     EDDAV:  cpu time   15.01: real time   15.88
       DOS:  cpu time    0.01: real time    0.01
    --------------------------------------------
      LOOP:  cpu time   15.01: real time   15.89

 eigenvalue-minimisations  :   768
 total energy-change (2. order) :-0.3203492E+03  (-0.3199682E+03)
 number of electron     168.5000000 magnetization       0.0000000
 augmentation part      168.5000000 magnetization       0.0000000

 Free energy of the ion-electron system (eV)
  ---------------------------------------------------
  alpha Z        PSCENC =        12.91687988
  Ewald energy   TEWEN  =     23333.82222168
  -Hartree energ DENC   =    -28935.53693007
  -exchange      EXHF   =         0.00000000
  -V(xc)+E(xc)   XCENC  =       401.01568461
  PAW double counting   =      5890.45591622    -5710.10246236
  entropy T*S    EENTRO =        -0.00000000
  eigenvalues    EBANDS =     -2975.21764846
  atomic energy  EATOM  =      7593.39991119
  ---------------------------------------------------
  free energy    TOTEN  =      -389.24642731 eV

  energy without entropy =     -389.24642731  energy(sigma->0) =     -389.24642731


--------------------------------------------------------------------------------------------------------




----------------------------------------- Iteration    1(   4)  ---------------------------------------


     EDDAV:  cpu time   13.77: real time   14.62
       DOS:  cpu time    0.01: real time    0.02
    --------------------------------------------
      LOOP:  cpu time   13.79: real time   14.64

 eigenvalue-minimisations  :   704
 total energy-change (2. order) :-0.2126476E+02  (-0.2123700E+02)
 number of electron     168.5000000 magnetization       0.0000000
 augmentation part      168.5000000 magnetization       0.0000000

 Free energy of the ion-electron system (eV)
  ---------------------------------------------------
  alpha Z        PSCENC =        12.91687988
  Ewald energy   TEWEN  =     23333.82222168
  -Hartree energ DENC   =    -28935.53693007
  -exchange      EXHF   =         0.00000000
  -V(xc)+E(xc)   XCENC  =       401.01568461
  PAW double counting   =      5890.45591622    -5710.10246236
  entropy T*S    EENTRO =        -0.00000000
  eigenvalues    EBANDS =     -2996.48240521
  atomic energy  EATOM  =      7593.39991119
  ---------------------------------------------------
  free energy    TOTEN  =      -410.51118406 eV

  energy without entropy =     -410.51118406  energy(sigma->0) =     -410.51118406


--------------------------------------------------------------------------------------------------------




----------------------------------------- Iteration    1(   5)  ---------------------------------------


     EDDAV:  cpu time   16.84: real time   17.85
       DOS:  cpu time    0.01: real time    0.01
    CHARGE:  cpu time    5.24: real time    5.26
    MIXING:  cpu time    0.06: real time    0.08
    --------------------------------------------
      LOOP:  cpu time   22.15: real time   23.19

 eigenvalue-minimisations  :   896
 total energy-change (2. order) :-0.2716549E+00  (-0.2715659E+00)
 number of electron     166.0000000 magnetization      -0.0000000
 augmentation part        3.7124443 magnetization      -0.0001515

 Broyden mixing:
  rms(total) = 0.56391E+01    rms(broyden)= 0.56385E+01
  rms(prec ) = 0.59760E+01
  weight for this iteration     100.00

 Free energy of the ion-electron system (eV)
  ---------------------------------------------------
  alpha Z        PSCENC =        12.91687988
  Ewald energy   TEWEN  =     23333.82222168
  -Hartree energ DENC   =    -28935.53693007
  -exchange      EXHF   =         0.00000000
  -V(xc)+E(xc)   XCENC  =       401.01568461
  PAW double counting   =      5890.45591622    -5710.10246236
  entropy T*S    EENTRO =        -0.00000000
  eigenvalues    EBANDS =     -2996.75406014
  atomic energy  EATOM  =      7593.39991119
  ---------------------------------------------------
  free energy    TOTEN  =      -410.78283899 eV

  energy without entropy =     -410.78283899  energy(sigma->0) =     -410.78283899


--------------------------------------------------------------------------------------------------------




----------------------------------------- Iteration    1(   6)  ---------------------------------------


    POTLOK:  cpu time    4.61: real time    4.75
    SETDIJ:  cpu time    2.80: real time    2.80
     EDDAV:  cpu time   11.98: real time   12.68
       DOS:  cpu time    0.08: real time    0.08
    CHARGE:  cpu time    5.16: real time    5.16
    MIXING:  cpu time    0.24: real time    0.25
    --------------------------------------------
      LOOP:  cpu time   24.89: real time   25.72

 eigenvalue-minimisations  :   576
 total energy-change (2. order) : 0.1934701E+02  (-0.2849991E+02)
 number of electron     166.0000000 magnetization      -0.0000000
 augmentation part        6.3504498 magnetization      -0.0008198

 Broyden mixing:
  rms(total) = 0.37313E+01    rms(broyden)= 0.37312E+01
  rms(prec ) = 0.38822E+01
  weight for this iteration     100.00

 eigenvalues of (default mixing * dielectric matrix)
  average eigenvalue GAMMA=   1.1408
  1.1408

 Free energy of the ion-electron system (eV)
  ---------------------------------------------------
  alpha Z        PSCENC =        12.91687988
  Ewald energy   TEWEN  =     23333.82222168
  -Hartree energ DENC   =    -28950.01963592
  -exchange      EXHF   =         0.00000000
  -V(xc)+E(xc)   XCENC  =       406.56368871
  PAW double counting   =     20890.44716046   -20722.22907246
  entropy T*S    EENTRO =        -0.00000000
  eigenvalues    EBANDS =     -2956.33697935
  atomic energy  EATOM  =      7593.39991119
  ---------------------------------------------------
  free energy    TOTEN  =      -391.43582581 eV

  energy without entropy =     -391.43582581  energy(sigma->0) =     -391.43582581


--------------------------------------------------------------------------------------------------------




----------------------------------------- Iteration    1(   7)  ---------------------------------------


    POTLOK:  cpu time    4.60: real time    4.62
    SETDIJ:  cpu time    2.78: real time    2.78
     EDDAV:  cpu time   15.02: real time   16.32
       DOS:  cpu time    0.04: real time    0.04
    CHARGE:  cpu time    5.17: real time    5.18
    MIXING:  cpu time    0.12: real time    0.12
    --------------------------------------------
      LOOP:  cpu time   27.73: real time   29.07

 eigenvalue-minimisations  :   768
 total energy-change (2. order) : 0.9611163E+01  (-0.2168856E+01)
 number of electron     166.0000000 magnetization      -0.0000000
 augmentation part        5.4693291 magnetization       0.0006457

 Broyden mixing:
  rms(total) = 0.22784E+01    rms(broyden)= 0.22784E+01
  rms(prec ) = 0.23413E+01
  weight for this iteration     100.00

 eigenvalues of (default mixing * dielectric matrix)
  average eigenvalue GAMMA=   1.5485
  0.7668  2.3303

 Free energy of the ion-electron system (eV)
  ---------------------------------------------------
  alpha Z        PSCENC =        12.91687988
  Ewald energy   TEWEN  =     23333.82222168
  -Hartree energ DENC   =    -29081.01717748
  -exchange      EXHF   =         0.00000000
  -V(xc)+E(xc)   XCENC  =       412.22141842
  PAW double counting   =     37585.71503811   -37412.94578228
  entropy T*S    EENTRO =        -0.00000000
  eigenvalues    EBANDS =     -2825.93717236
  atomic energy  EATOM  =      7593.39991119
  ---------------------------------------------------
  free energy    TOTEN  =      -381.82466283 eV

  energy without entropy =     -381.82466283  energy(sigma->0) =     -381.82466283


--------------------------------------------------------------------------------------------------------




----------------------------------------- Iteration    1(   8)  ---------------------------------------


    POTLOK:  cpu time    4.59: real time    4.61
    SETDIJ:  cpu time    2.84: real time    2.85
     EDDAV:  cpu time   15.29: real time   16.59
       DOS:  cpu time    0.05: real time    0.05
    CHARGE:  cpu time    5.15: real time    5.16
    MIXING:  cpu time    0.18: real time    0.18
    --------------------------------------------
      LOOP:  cpu time   28.10: real time   29.44

 eigenvalue-minimisations  :   768
 total energy-change (2. order) : 0.3798046E+01  (-0.1631046E+01)
 number of electron     166.0000000 magnetization      -0.0000000
 augmentation part        4.7838310 magnetization       0.0000733

 Broyden mixing:
  rms(total) = 0.88185E+00    rms(broyden)= 0.88181E+00
  rms(prec ) = 0.98605E+00
  weight for this iteration     100.00

 eigenvalues of (default mixing * dielectric matrix)
  average eigenvalue GAMMA=   1.4668
  2.7061  0.8471  0.8471

 Free energy of the ion-electron system (eV)
  ---------------------------------------------------
  alpha Z        PSCENC =        12.91687988
  Ewald energy   TEWEN  =     23333.82222168
  -Hartree energ DENC   =    -29234.97186219
  -exchange      EXHF   =         0.00000000
  -V(xc)+E(xc)   XCENC  =       420.74139597
  PAW double counting   =     74175.38265530   -74000.01435689
  entropy T*S    EENTRO =        -0.00000000
  eigenvalues    EBANDS =     -2679.30346214
  atomic energy  EATOM  =      7593.39991119
  ---------------------------------------------------
  free energy    TOTEN  =      -378.02661721 eV

  energy without entropy =     -378.02661721  energy(sigma->0) =     -378.02661721


--------------------------------------------------------------------------------------------------------




----------------------------------------- Iteration    1(   9)  ---------------------------------------


    POTLOK:  cpu time    4.59: real time    4.61
    SETDIJ:  cpu time    2.81: real time    2.83
     EDDAV:  cpu time   15.09: real time   16.38
       DOS:  cpu time    0.05: real time    0.05
    CHARGE:  cpu time    5.19: real time    5.21
    MIXING:  cpu time    0.11: real time    0.11
    --------------------------------------------
      LOOP:  cpu time   27.85: real time   29.19

 eigenvalue-minimisations  :   768
 total energy-change (2. order) : 0.9568061E+00  (-0.8711189E+00)
 number of electron     166.0000000 magnetization      -0.0000000
 augmentation part        5.3236501 magnetization      -0.0000442

 Broyden mixing:
  rms(total) = 0.34455E+00    rms(broyden)= 0.34451E+00
  rms(prec ) = 0.38707E+00
  weight for this iteration     100.00

 eigenvalues of (default mixing * dielectric matrix)
  average eigenvalue GAMMA=   1.3160
  2.5218  1.2348  0.7538  0.7538

 Free energy of the ion-electron system (eV)
  ---------------------------------------------------
  alpha Z        PSCENC =        12.91687988
  Ewald energy   TEWEN  =     23333.82222168
  -Hartree energ DENC   =    -29232.48936680
  -exchange      EXHF   =         0.00000000
  -V(xc)+E(xc)   XCENC  =       422.41125306
  PAW double counting   =     82739.40360445   -82566.34308252
  entropy T*S    EENTRO =        -0.00000000
  eigenvalues    EBANDS =     -2680.19123209
  atomic energy  EATOM  =      7593.39991119
  ---------------------------------------------------
  free energy    TOTEN  =      -377.06981115 eV

  energy without entropy =     -377.06981115  energy(sigma->0) =     -377.06981115


--------------------------------------------------------------------------------------------------------




----------------------------------------- Iteration    1(  10)  ---------------------------------------


    POTLOK:  cpu time    4.59: real time    4.61
    SETDIJ:  cpu time    2.76: real time    2.83
     EDDAV:  cpu time   15.26: real time   16.57
       DOS:  cpu time    0.05: real time    0.05
    CHARGE:  cpu time    5.24: real time    5.24
    MIXING:  cpu time    0.14: real time    0.14
    --------------------------------------------
      LOOP:  cpu time   28.03: real time   29.44

 eigenvalue-minimisations  :   768
 total energy-change (2. order) : 0.2991460E-01  (-0.1838543E-01)
 number of electron     166.0000000 magnetization      -0.0000000
 augmentation part        5.3575207 magnetization      -0.0000234

 Broyden mixing:
  rms(total) = 0.25060E+00    rms(broyden)= 0.25059E+00
  rms(prec ) = 0.29887E+00
  weight for this iteration     100.00

 eigenvalues of (default mixing * dielectric matrix)
  average eigenvalue GAMMA=   1.2775
  2.4371  1.6559  0.7289  0.7289  0.8369

 Free energy of the ion-electron system (eV)
  ---------------------------------------------------
  alpha Z        PSCENC =        12.91687988
  Ewald energy   TEWEN  =     23333.82222168
  -Hartree energ DENC   =    -29222.22264656
  -exchange      EXHF   =         0.00000000
  -V(xc)+E(xc)   XCENC  =       422.38912503
  PAW double counting   =     81154.94510392   -80982.02251132
  entropy T*S    EENTRO =        -0.00000000
  eigenvalues    EBANDS =     -2690.26798037
  atomic energy  EATOM  =      7593.39991119
  ---------------------------------------------------
  free energy    TOTEN  =      -377.03989655 eV

  energy without entropy =     -377.03989655  energy(sigma->0) =     -377.03989655


--------------------------------------------------------------------------------------------------------




----------------------------------------- Iteration    1(  11)  ---------------------------------------


    POTLOK:  cpu time    4.60: real time    4.61
    SETDIJ:  cpu time    2.81: real time    2.81
     EDDAV:  cpu time   15.05: real time   16.33
       DOS:  cpu time    0.05: real time    0.05
    CHARGE:  cpu time    5.25: real time    5.26
    MIXING:  cpu time    0.11: real time    0.11
    --------------------------------------------
      LOOP:  cpu time   27.87: real time   29.17

 eigenvalue-minimisations  :   768
 total energy-change (2. order) : 0.1269243E+00  (-0.1395078E-01)
 number of electron     166.0000000 magnetization      -0.0000000
 augmentation part        5.3040564 magnetization      -0.0000190

 Broyden mixing:
  rms(total) = 0.12829E+00    rms(broyden)= 0.12829E+00
  rms(prec ) = 0.17139E+00
  weight for this iteration     100.00

 eigenvalues of (default mixing * dielectric matrix)
  average eigenvalue GAMMA=   1.4115
  2.5372  2.5372  1.0650  0.8306  0.8306  0.6681

 Free energy of the ion-electron system (eV)
  ---------------------------------------------------
  alpha Z        PSCENC =        12.91687988
  Ewald energy   TEWEN  =     23333.82222168
  -Hartree energ DENC   =    -29220.92724755
  -exchange      EXHF   =         0.00000000
  -V(xc)+E(xc)   XCENC  =       423.00045685
  PAW double counting   =     81664.92997626   -81491.75773029
  entropy T*S    EENTRO =        -0.00000000
  eigenvalues    EBANDS =     -2692.29744023
  atomic energy  EATOM  =      7593.39991119
  ---------------------------------------------------
  free energy    TOTEN  =      -376.91297221 eV

  energy without entropy =     -376.91297221  energy(sigma->0) =     -376.91297221


--------------------------------------------------------------------------------------------------------




----------------------------------------- Iteration    1(  12)  ---------------------------------------


    POTLOK:  cpu time    4.59: real time    4.61
    SETDIJ:  cpu time    2.80: real time    2.81
     EDDAV:  cpu time   15.45: real time   16.72
       DOS:  cpu time    0.05: real time    0.05
    CHARGE:  cpu time    5.26: real time    5.26
    MIXING:  cpu time    0.09: real time    0.09
    --------------------------------------------
      LOOP:  cpu time   28.25: real time   29.55

 eigenvalue-minimisations  :   768
 total energy-change (2. order) : 0.8480396E-01  (-0.1318898E-01)
 number of electron     166.0000000 magnetization      -0.0000000
 augmentation part        5.2497003 magnetization      -0.0000068

 Broyden mixing:
  rms(total) = 0.71912E-01    rms(broyden)= 0.71907E-01
  rms(prec ) = 0.10448E+00
  weight for this iteration     100.00

 eigenvalues of (default mixing * dielectric matrix)
  average eigenvalue GAMMA=   1.4080
  2.7841  2.7841  1.0061  1.0061  0.8191  0.8191  0.6377

 Free energy of the ion-electron system (eV)
  ---------------------------------------------------
  alpha Z        PSCENC =        12.91687988
  Ewald energy   TEWEN  =     23333.82222168
  -Hartree energ DENC   =    -29217.33665898
  -exchange      EXHF   =         0.00000000
  -V(xc)+E(xc)   XCENC  =       423.66167699
  PAW double counting   =     81797.08400797   -81623.73714114
  entropy T*S    EENTRO =        -0.00000000
  eigenvalues    EBANDS =     -2696.63906584
  atomic energy  EATOM  =      7593.39991119
  ---------------------------------------------------
  free energy    TOTEN  =      -376.82816825 eV

  energy without entropy =     -376.82816825  energy(sigma->0) =     -376.82816825


--------------------------------------------------------------------------------------------------------




----------------------------------------- Iteration    1(  13)  ---------------------------------------


    POTLOK:  cpu time    4.59: real time    4.61
    SETDIJ:  cpu time    2.80: real time    2.81
     EDDAV:  cpu time   15.06: real time   16.34
       DOS:  cpu time    0.05: real time    0.05
    CHARGE:  cpu time    5.21: real time    5.21
    MIXING:  cpu time    0.08: real time    0.08
    --------------------------------------------
      LOOP:  cpu time   27.80: real time   29.10

 eigenvalue-minimisations  :   768
 total energy-change (2. order) : 0.2172316E-01  (-0.1554280E-02)
 number of electron     166.0000000 magnetization      -0.0000000
 augmentation part        5.2486589 magnetization      -0.0000117

 Broyden mixing:
  rms(total) = 0.56113E-01    rms(broyden)= 0.56113E-01
  rms(prec ) = 0.81980E-01
  weight for this iteration     100.00

 eigenvalues of (default mixing * dielectric matrix)
  average eigenvalue GAMMA=   1.4705
  3.0136  3.0136  1.1750  1.1750  1.1059  0.8295  0.8295  0.6220

 Free energy of the ion-electron system (eV)
  ---------------------------------------------------
  alpha Z        PSCENC =        12.91687988
  Ewald energy   TEWEN  =     23333.82222168
  -Hartree energ DENC   =    -29211.27343538
  -exchange      EXHF   =         0.00000000
  -V(xc)+E(xc)   XCENC  =       423.90287819
  PAW double counting   =     81317.91070935   -81144.61586131
  entropy T*S    EENTRO =        -0.00000000
  eigenvalues    EBANDS =     -2702.86974870
  atomic energy  EATOM  =      7593.39991119
  ---------------------------------------------------
  free energy    TOTEN  =      -376.80644509 eV

  energy without entropy =     -376.80644509  energy(sigma->0) =     -376.80644509


--------------------------------------------------------------------------------------------------------




----------------------------------------- Iteration    1(  14)  ---------------------------------------


    POTLOK:  cpu time    4.59: real time    4.61
    SETDIJ:  cpu time    2.82: real time    2.82
     EDDAV:  cpu time   15.45: real time   16.71
       DOS:  cpu time    0.05: real time    0.05
    CHARGE:  cpu time    5.27: real time    5.27
    MIXING:  cpu time    0.10: real time    0.10
    --------------------------------------------
      LOOP:  cpu time   28.27: real time   29.56

 eigenvalue-minimisations  :   768
 total energy-change (2. order) : 0.1628556E-01  (-0.2236138E-02)
 number of electron     166.0000000 magnetization      -0.0000000
 augmentation part        5.2581712 magnetization       0.0000203

 Broyden mixing:
  rms(total) = 0.36972E-01    rms(broyden)= 0.36971E-01
  rms(prec ) = 0.51699E-01
  weight for this iteration     100.00

 eigenvalues of (default mixing * dielectric matrix)
  average eigenvalue GAMMA=   1.5079
  4.0061  2.7022  1.8061  1.1176  1.1176  0.8282  0.8282  0.6357  0.5292

 Free energy of the ion-electron system (eV)
  ---------------------------------------------------
  alpha Z        PSCENC =        12.91687988
  Ewald energy   TEWEN  =     23333.82222168
  -Hartree energ DENC   =    -29200.30059940
  -exchange      EXHF   =         0.00000000
  -V(xc)+E(xc)   XCENC  =       424.20863636
  PAW double counting   =     80914.54980951   -80741.37413422
  entropy T*S    EENTRO =        -0.00000000
  eigenvalues    EBANDS =     -2714.01288455
  atomic energy  EATOM  =      7593.39991119
  ---------------------------------------------------
  free energy    TOTEN  =      -376.79015954 eV

  energy without entropy =     -376.79015954  energy(sigma->0) =     -376.79015954


--------------------------------------------------------------------------------------------------------




----------------------------------------- Iteration    1(  15)  ---------------------------------------


    POTLOK:  cpu time    4.59: real time    4.61
    SETDIJ:  cpu time    2.79: real time    2.79
     EDDAV:  cpu time   15.04: real time   16.33
       DOS:  cpu time    0.04: real time    0.04
    CHARGE:  cpu time    5.24: real time    5.24
    MIXING:  cpu time    0.09: real time    0.09
    --------------------------------------------
      LOOP:  cpu time   27.80: real time   29.10

 eigenvalue-minimisations  :   768
 total energy-change (2. order) : 0.7885057E-04  (-0.5882883E-03)
 number of electron     166.0000000 magnetization      -0.0000000
 augmentation part        5.2586706 magnetization      -0.0000055

 Broyden mixing:
  rms(total) = 0.30264E-01    rms(broyden)= 0.30263E-01
  rms(prec ) = 0.40041E-01
  weight for this iteration     100.00

 eigenvalues of (default mixing * dielectric matrix)
  average eigenvalue GAMMA=   1.5273
  4.6258  2.5150  2.1205  1.2937  0.9972  0.9972  0.8126  0.8126  0.6272  0.4714

 Free energy of the ion-electron system (eV)
  ---------------------------------------------------
  alpha Z        PSCENC =        12.91687988
  Ewald energy   TEWEN  =     23333.82222168
  -Hartree energ DENC   =    -29193.84614701
  -exchange      EXHF   =         0.00000000
  -V(xc)+E(xc)   XCENC  =       424.32215070
  PAW double counting   =     80887.17953057   -80714.02501971
  entropy T*S    EENTRO =        -0.00000000
  eigenvalues    EBANDS =     -2720.55960799
  atomic energy  EATOM  =      7593.39991119
  ---------------------------------------------------
  free energy    TOTEN  =      -376.79008069 eV

  energy without entropy =     -376.79008069  energy(sigma->0) =     -376.79008069


--------------------------------------------------------------------------------------------------------




----------------------------------------- Iteration    1(  16)  ---------------------------------------


    POTLOK:  cpu time    4.61: real time    4.63
    SETDIJ:  cpu time    2.82: real time    2.83
     EDDAV:  cpu time   15.58: real time   16.83
       DOS:  cpu time    0.06: real time    0.06
    CHARGE:  cpu time    5.14: real time    5.13
    MIXING:  cpu time    0.14: real time    0.14
    --------------------------------------------
      LOOP:  cpu time   28.35: real time   29.62

 eigenvalue-minimisations  :   768
 total energy-change (2. order) :-0.4840417E-02  (-0.1311068E-03)
 number of electron     166.0000000 magnetization      -0.0000000
 augmentation part        5.2574486 magnetization      -0.0000003

 Broyden mixing:
  rms(total) = 0.19751E-01    rms(broyden)= 0.19751E-01
  rms(prec ) = 0.27870E-01
  weight for this iteration     100.00

 eigenvalues of (default mixing * dielectric matrix)
  average eigenvalue GAMMA=   1.6301
  5.3141  2.5009  2.5009  1.5853  1.2139  1.2139  0.8284  0.8284  0.8537  0.6267
  0.4646

 Free energy of the ion-electron system (eV)
  ---------------------------------------------------
  alpha Z        PSCENC =        12.91687988
  Ewald energy   TEWEN  =     23333.82222168
  -Hartree energ DENC   =    -29188.03909311
  -exchange      EXHF   =         0.00000000
  -V(xc)+E(xc)   XCENC  =       424.35051429
  PAW double counting   =     80968.04683443   -80794.88049720
  entropy T*S    EENTRO =        -0.00000000
  eigenvalues    EBANDS =     -2726.41169226
  atomic energy  EATOM  =      7593.39991119
  ---------------------------------------------------
  free energy    TOTEN  =      -376.79492110 eV

  energy without entropy =     -376.79492110  energy(sigma->0) =     -376.79492110


--------------------------------------------------------------------------------------------------------




----------------------------------------- Iteration    1(  17)  ---------------------------------------


    POTLOK:  cpu time    4.62: real time    4.63
    SETDIJ:  cpu time    2.81: real time    2.81
     EDDAV:  cpu time   15.06: real time   16.33
       DOS:  cpu time    0.05: real time    0.05
    CHARGE:  cpu time    5.10: real time    5.10
    MIXING:  cpu time    0.15: real time    0.15
    --------------------------------------------
      LOOP:  cpu time   27.78: real time   29.07

 eigenvalue-minimisations  :   768
 total energy-change (2. order) :-0.9797050E-02  (-0.2454337E-03)
 number of electron     166.0000000 magnetization      -0.0000000
 augmentation part        5.2599041 magnetization      -0.0000051

 Broyden mixing:
  rms(total) = 0.91771E-02    rms(broyden)= 0.91765E-02
  rms(prec ) = 0.13591E-01
  weight for this iteration     100.00

 eigenvalues of (default mixing * dielectric matrix)
  average eigenvalue GAMMA=   1.6922
  6.2496  2.7765  2.7765  1.7881  1.1500  1.1500  0.8237  0.8237  0.9645  0.7152
  0.6255  0.4635

 Free energy of the ion-electron system (eV)
  ---------------------------------------------------
  alpha Z        PSCENC =        12.91687988
  Ewald energy   TEWEN  =     23333.82222168
  -Hartree energ DENC   =    -29177.57377021
  -exchange      EXHF   =         0.00000000
  -V(xc)+E(xc)   XCENC  =       424.29785200
  PAW double counting   =     81082.48940177   -80909.30347727
  entropy T*S    EENTRO =        -0.00000000
  eigenvalues    EBANDS =     -2736.85373720
  atomic energy  EATOM  =      7593.39991119
  ---------------------------------------------------
  free energy    TOTEN  =      -376.80471815 eV

  energy without entropy =     -376.80471815  energy(sigma->0) =     -376.80471815


--------------------------------------------------------------------------------------------------------




----------------------------------------- Iteration    1(  18)  ---------------------------------------


    POTLOK:  cpu time    4.62: real time    4.63
    SETDIJ:  cpu time    2.82: real time    2.82
     EDDAV:  cpu time   15.23: real time   16.49
       DOS:  cpu time    0.05: real time    0.05
    CHARGE:  cpu time    5.19: real time    5.19
    MIXING:  cpu time    0.18: real time    0.18
    --------------------------------------------
      LOOP:  cpu time   28.09: real time   29.37

 eigenvalue-minimisations  :   768
 total energy-change (2. order) :-0.3911185E-02  (-0.7007116E-04)
 number of electron     166.0000000 magnetization      -0.0000000
 augmentation part        5.2622162 magnetization       0.0000026

 Broyden mixing:
  rms(total) = 0.83155E-02    rms(broyden)= 0.83154E-02
  rms(prec ) = 0.10746E-01
  weight for this iteration     100.00

 eigenvalues of (default mixing * dielectric matrix)
[...]
 12.599   0.000  21.223   0.000   0.005   0.000  -0.006   0.000  -0.007   0.000   0.009   0.000  -0.011   0.000  -0.013   0.000
 21.223   0.000  35.746   0.000   0.009   0.000  -0.011   0.000  -0.012   0.000   0.015   0.000  -0.019   0.000  -0.021   0.000
  0.005   0.000   0.009   0.000  -3.557   0.000   0.001   0.000   0.000   0.000  -6.393   0.000   0.002   0.000   0.000   0.000
 -0.006   0.000  -0.011   0.000   0.001   0.000  -3.557   0.000  -0.000   0.000   0.002   0.000  -6.393   0.000  -0.001   0.000
 -0.007   0.000  -0.012   0.000   0.000   0.000  -0.000   0.000  -3.557   0.000   0.000   0.000  -0.001   0.000  -6.394   0.000
  0.009   0.000   0.015   0.000  -6.393   0.000   0.002   0.000   0.000   0.000 -11.469   0.000   0.003   0.000   0.000   0.000
 -0.011   0.000  -0.019   0.000   0.002   0.000  -6.393   0.000  -0.001   0.000   0.003   0.000 -11.469   0.000  -0.002   0.000
 -0.013   0.000  -0.021   0.000   0.000   0.000  -0.001   0.000  -6.394   0.000   0.000   0.000  -0.002   0.000 -11.472   0.000
 pseudopotential strength for first ion, spin component:           2
 12.599   0.000  21.223   0.000   0.005   0.000  -0.006   0.000  -0.007   0.000   0.009   0.000  -0.011   0.000  -0.013   0.000
 21.223   0.000  35.746   0.000   0.009   0.000  -0.011   0.000  -0.012   0.000   0.015   0.000  -0.019   0.000  -0.021   0.000
  0.005   0.000   0.009   0.000  -3.557   0.000   0.001   0.000   0.000   0.000  -6.393   0.000   0.002   0.000   0.000   0.000
 -0.006   0.000  -0.011   0.000   0.001   0.000  -3.557   0.000  -0.000   0.000   0.002   0.000  -6.393   0.000  -0.001   0.000
 -0.007   0.000  -0.012   0.000   0.000   0.000  -0.000   0.000  -3.557   0.000   0.000   0.000  -0.001   0.000  -6.394   0.000
  0.009   0.000   0.015   0.000  -6.393   0.000   0.002   0.000   0.000   0.000 -11.469   0.000   0.003   0.000   0.000   0.000
 -0.011   0.000  -0.019   0.000   0.002   0.000  -6.393   0.000  -0.001   0.000   0.003   0.000 -11.469   0.000  -0.002   0.000
 -0.013   0.000  -0.021   0.000   0.000   0.000  -0.001   0.000  -6.394   0.000   0.000   0.000  -0.002   0.000 -11.472   0.000
 total augmentation occupancy for first ion, spin component:           1
  1.766  -0.559   0.363  -0.399  -0.274  -0.134   0.155   0.134
 -0.559   0.675  -0.177   0.208   0.193   0.049  -0.063  -0.079
  0.363  -0.177   2.033  -1.161   0.043  -0.306   0.383   0.030
 -0.399   0.208  -1.161   1.984   0.509   0.383  -0.308  -0.200
 -0.274   0.193   0.043   0.509   3.225   0.030  -0.201  -0.669
 -0.134   0.049  -0.306   0.383   0.030   0.174  -0.052  -0.031
  0.155  -0.063   0.383  -0.308  -0.201  -0.052   0.188   0.053
  0.134  -0.079   0.030  -0.200  -0.669  -0.031   0.053   0.228
 total augmentation occupancy for first ion, spin component:           2
 -0.000   0.000  -0.000  -0.000  -0.000   0.000  -0.000  -0.000
  0.000  -0.000   0.000   0.000   0.000  -0.000   0.000   0.000
 -0.000   0.000   0.000  -0.000   0.000  -0.000   0.000  -0.000
 -0.000   0.000  -0.000   0.000  -0.000   0.000  -0.000   0.000
 -0.000   0.000   0.000  -0.000   0.000  -0.000  -0.000  -0.000
  0.000  -0.000  -0.000   0.000  -0.000   0.000  -0.000  -0.000
 -0.000   0.000   0.000  -0.000  -0.000  -0.000   0.000   0.000
 -0.000   0.000  -0.000   0.000  -0.000  -0.000   0.000   0.000


------------------------ aborting loop because EDIFF is reached ----------------------------------------


    CHARGE:  cpu time    5.26: real time    5.28
    FORLOC:  cpu time    0.57: real time    0.56
    FORNL :  cpu time   19.60: real time   19.64
    STRESS:  cpu time   61.17: real time   61.28
    FORCOR:  cpu time    4.21: real time    4.23
    FORHAR:  cpu time    0.99: real time    1.00
    MIXING:  cpu time    0.20: real time    0.21
    OFIELD:  cpu time    0.00: real time    0.00

  FORCE on cell =-STRESS in cart. coord.  units (eV):
  Direction    XX          YY          ZZ          XY          YZ          ZX
  --------------------------------------------------------------------------------------
  Alpha Z    12.91688    12.91688    12.91688
  Ewald   11238.67065  5588.39473  6506.74238   381.88447 -1602.19320   921.43205
  Hartree 12573.28793  7809.05921  8783.34337    93.31524 -1455.21633   736.48327
  E(xc)    -688.80750  -691.39965  -692.06631     1.43960    -0.21798     0.67704
  Local  -26180.85316-15802.85112-17715.80969  -452.48079  3053.28408 -1656.89284
  n-local   -28.36188   -28.45469   -31.87751     3.36345    -1.76085    -0.81264
  augment    82.54867    84.43271    83.30357     1.34675    -0.53325     0.33522
  Kinetic  2974.82771  3013.68836  3039.43120   -29.89521     7.91992    -0.85753
  Fock        0.00000     0.00000     0.00000     0.00000     0.00000     0.00000
  -------------------------------------------------------------------------------------
  Total     -15.77070   -14.21357   -14.01609    -1.02648     1.28240     0.36457
  in kB      -3.15843    -2.84658    -2.80703    -0.20558     0.25683     0.07301
  external pressure =       -2.94 kB  Pullay stress =        0.00 kB


 VOLUME and BASIS-vectors are now :
 -----------------------------------------------------------------------------
  energy-cutoff  :      700.00
  volume of cell :     8000.00
      direct lattice vectors                 reciprocal lattice vectors
    20.000000000  0.000000000  0.000000000     0.050000000  0.000000000  0.000000000
     0.000000000 20.000000000  0.000000000     0.000000000  0.050000000  0.000000000
     0.000000000  0.000000000 20.000000000     0.000000000  0.000000000  0.050000000

  length of vectors
    20.000000000 20.000000000 20.000000000     0.050000000  0.050000000  0.050000000


 FORCES acting on ions
    electron-ion (+dipol)            ewald-force                    non-local-force                 convergence-correction
 -----------------------------------------------------------------------------------------------
   -.299E+03 0.706E+02 -.103E+03   0.303E+03 -.737E+02 0.107E+03   -.427E+01 0.303E+01 -.386E+01   -.279E-04 -.347E-04 0.401E-05
   0.881E+02 -.921E+01 0.333E+03   -.888E+02 0.947E+01 -.335E+03   0.677E+00 -.269E+00 0.186E+01   -.966E-05 -.247E-04 -.593E-04
   0.685E+02 0.802E+02 0.318E+03   -.706E+02 -.824E+02 -.325E+03   0.216E+01 0.210E+01 0.639E+01   -.736E-05 -.573E-04 -.124E-05
   0.434E+01 -.318E+03 0.301E+02   -.470E+01 0.325E+03 -.296E+02   0.369E+00 -.694E+01 -.454E+00   -.359E-05 0.471E-06 0.346E-04
   0.365E+02 -.326E+03 0.105E+03   -.369E+02 0.327E+03 -.106E+03   0.392E+00 -.180E+01 0.656E+00   0.283E-05 0.469E-04 -.928E-05
   0.806E+02 -.208E+03 0.263E+03   -.811E+02 0.209E+03 -.265E+03   0.560E+00 -.114E+01 0.144E+01   -.853E-05 0.505E-04 -.701E-04
   0.754E+02 0.268E+03 -.219E+03   -.761E+02 -.270E+03 0.220E+03   0.708E+00 0.159E+01 -.148E+01   -.124E-04 -.510E-04 0.321E-04
   0.152E+03 0.256E+03 -.165E+03   -.156E+03 -.261E+03 0.168E+03   0.460E+01 0.493E+01 -.388E+01   -.346E-04 -.720E-05 0.275E-05
   -.222E+03 0.128E+03 -.141E+03   0.224E+03 -.133E+03 0.147E+03   -.240E+01 0.489E+01 -.568E+01   0.339E-04 -.479E-06 -.517E-05
   -.257E+03 0.146E+03 -.183E+03   0.258E+03 -.148E+03 0.186E+03   -.111E+01 0.201E+01 -.240E+01   0.396E-04 -.754E-05 -.795E-05
   -.341E+03 -.715E+02 0.133E+00   0.343E+03 0.726E+02 -.511E+00   -.283E+01 -.115E+01 0.431E+00   0.572E-04 0.250E-04 -.958E-05
   -.259E+03 -.194E+03 0.139E+03   0.261E+03 0.196E+03 -.140E+03   -.167E+01 -.166E+01 0.111E+01   0.318E-04 0.346E-04 -.278E-04
   -.181E+03 -.217E+03 0.189E+03   0.184E+03 0.223E+03 -.194E+03   -.288E+01 -.580E+01 0.481E+01   -.835E-05 -.879E-06 -.219E-04
   0.323E+03 -.349E+02 -.117E+03   -.325E+03 0.347E+02 0.117E+03   0.243E+01 0.215E+00 -.299E+00   0.263E-04 0.296E-04 0.445E-04
   -.325E+03 0.595E+02 -.113E+03   0.331E+03 -.588E+02 0.114E+03   -.696E+01 -.719E+00 -.914E+00   0.466E-05 -.245E-04 0.147E-04
   -.122E+03 0.233E+03 -.239E+03   0.122E+03 -.235E+03 0.241E+03   -.362E+00 0.178E+01 -.190E+01   0.381E-04 -.531E-04 0.368E-04
   0.272E+03 -.293E+02 -.104E+03   -.277E+03 0.311E+02 0.106E+03   0.519E+01 -.185E+01 -.277E+01   0.141E-04 0.519E-04 0.358E-04
   0.128E+03 -.218E+03 -.261E+03   -.128E+03 0.219E+03 0.263E+03   0.755E+00 -.132E+01 -.162E+01   -.482E-04 0.438E-04 0.465E-04
   -.738E+02 -.256E+03 -.246E+03   0.740E+02 0.258E+03 0.248E+03   -.226E+00 -.150E+01 -.159E+01   -.135E-04 0.357E-04 0.289E-04
   -.157E+03 -.238E+03 -.197E+03   0.160E+03 0.242E+03 0.201E+03   -.371E+01 -.486E+01 -.430E+01   -.636E-05 -.247E-04 -.165E-04
   0.233E+03 -.961E+02 -.158E+03   -.239E+03 0.971E+02 0.161E+03   0.582E+01 -.951E+00 -.274E+01   -.299E-04 -.318E-04 -.354E-04
   0.265E+03 -.124E+03 -.200E+03   -.267E+03 0.125E+03 0.202E+03   0.132E+01 -.127E+01 -.183E+01   -.354E-04 -.202E-04 -.254E-04
   0.148E+03 0.264E+03 0.192E+03   -.151E+03 -.269E+03 -.197E+03   0.350E+01 0.498E+01 0.414E+01   0.661E-05 -.195E-04 -.315E-04
   0.241E+03 0.223E+03 0.143E+03   -.243E+03 -.225E+03 -.144E+03   0.166E+01 0.121E+01 0.834E+00   -.288E-04 -.526E-04 -.411E-04
   0.337E+03 0.956E+02 0.317E+01   -.339E+03 -.961E+02 -.334E+01   0.196E+01 0.535E+00 0.147E+00   -.402E-04 -.290E-04 0.186E-04
   0.453E+02 0.806E+02 -.636E+02   -.490E+02 -.844E+02 0.665E+02   0.365E+01 0.383E+01 -.290E+01   -.245E-05 -.184E-04 0.122E-04
   -.417E+02 0.696E+02 -.758E+02   0.441E+02 -.733E+02 0.800E+02   -.242E+01 0.363E+01 -.419E+01   0.911E-05 -.223E-04 0.170E-04
   -.995E+02 0.283E+02 -.491E+02   0.105E+03 -.281E+02 0.504E+02   -.581E+01 -.233E+00 -.127E+01   0.255E-05 -.921E-05 0.231E-05
   -.404E+02 0.150E+03 0.162E+02   0.422E+02 -.157E+03 -.129E+02   -.178E+01 0.757E+01 -.335E+01   -.929E-05 0.218E-04 0.230E-05
   0.101E+03 -.225E+02 -.518E+02   -.107E+03 0.221E+02 0.530E+02   0.582E+01 0.409E+00 -.121E+01   -.116E-04 0.277E-05 0.539E-05
   0.802E+02 0.680E+02 -.317E+02   -.861E+02 -.681E+02 0.304E+02   0.590E+01 0.139E+00 0.134E+01   -.454E-05 0.257E-05 -.220E-05
   0.267E+02 -.664E+02 0.814E+02   -.282E+02 0.701E+02 -.859E+02   0.154E+01 -.372E+01 0.448E+01   -.572E-05 0.238E-04 -.317E-04
   0.597E+01 -.110E+03 0.890E+01   -.594E+01 0.116E+03 -.782E+01   -.306E-01 -.588E+01 -.107E+01   -.507E-06 0.268E-04 -.693E-05
   -.140E+02 -.101E+03 -.343E+02   0.155E+02 0.104E+03 0.397E+02   -.153E+01 -.210E+01 -.538E+01   -.336E-05 -.472E-05 0.560E-05
   -.101E+03 0.259E+02 0.116E+03   0.108E+03 -.237E+02 -.121E+03   -.651E+01 -.228E+01 0.485E+01   -.173E-04 0.533E-05 0.159E-04
   -.929E+02 0.387E+02 -.540E+02   0.961E+02 -.420E+02 0.578E+02   -.341E+01 0.327E+01 -.381E+01   0.639E-05 -.689E-05 0.427E-05
   -.662E+02 -.716E+02 0.549E+02   0.687E+02 0.759E+02 -.584E+02   -.247E+01 -.430E+01 0.348E+01   0.139E-04 0.998E-05 -.754E-05
   0.176E+02 0.710E+02 0.885E+02   -.177E+02 -.770E+02 -.893E+02   0.532E-01 0.596E+01 0.731E+00   0.255E-06 -.114E-04 0.393E-05
   0.430E+01 0.904E+02 0.774E+02   -.724E+00 -.935E+02 -.812E+02   -.358E+01 0.301E+01 0.375E+01   0.242E-05 -.282E-05 -.593E-05
   0.603E+02 0.771E+02 0.571E+02   -.626E+02 -.813E+02 -.607E+02   0.229E+01 0.426E+01 0.356E+01   -.129E-04 -.162E-04 -.111E-04
   -.106E+03 -.199E+02 -.438E+01   0.111E+03 0.209E+02 0.488E+01   -.597E+01 -.975E+00 -.451E+00   0.228E-04 0.872E-05 -.331E-05
   -.833E+02 -.645E+02 -.383E+02   0.891E+02 0.648E+02 0.371E+02   -.585E+01 -.266E+00 0.128E+01   -.172E-05 -.660E-05 -.314E-05
   0.286E+02 0.211E+02 0.104E+03   -.302E+02 -.236E+02 -.109E+03   0.153E+01 0.241E+01 0.526E+01   -.522E-05 -.457E-05 -.285E-04
   -.452E+02 -.785E+02 -.700E+02   0.488E+02 0.822E+02 0.730E+02   -.357E+01 -.374E+01 -.305E+01   -.498E-06 0.189E-04 0.169E-04
   0.946E+02 -.331E+02 -.543E+02   -.981E+02 0.362E+02 0.580E+02   0.345E+01 -.311E+01 -.372E+01   -.326E-05 0.133E-05 0.887E-05
   0.105E+03 0.253E+02 -.238E+01   -.111E+03 -.263E+02 0.268E+01   0.591E+01 0.109E+01 -.304E+00   -.261E-04 -.140E-04 0.395E-05
   -.228E+02 -.763E+02 0.743E+02   0.192E+02 0.794E+02 -.781E+02   0.347E+01 -.322E+01 0.384E+01   0.577E-05 -.447E-05 -.279E-06
   0.433E+02 -.659E+02 -.805E+02   -.458E+02 0.693E+02 0.848E+02   0.248E+01 -.342E+01 -.430E+01   -.137E-04 0.200E-04 0.229E-04
   0.319E+02 -.139E+03 0.223E+03   -.272E+02 0.127E+03 -.208E+03   -.471E+01 0.120E+02 -.146E+02   0.402E-05 -.827E-04 0.831E-04
   0.232E+03 0.163E+03 0.622E+02   -.213E+03 -.160E+03 -.636E+02   -.189E+02 -.309E+01 0.147E+01   0.624E-04 0.731E-04 0.361E-04
   -.368E+02 0.236E+03 -.161E+03   0.268E+02 -.224E+03 0.147E+03   0.102E+02 -.116E+02 0.136E+02   -.389E-05 0.543E-04 -.613E-04
   0.405E+02 -.196E+03 -.197E+03   -.332E+02 0.187E+03 0.185E+03   -.733E+01 0.912E+01 0.122E+02   -.444E-04 -.812E-04 -.648E-04
   -.247E+03 -.104E+03 0.767E+02   0.221E+03 0.103E+03 -.814E+02   0.254E+02 0.162E+00 0.501E+01   -.635E-04 -.482E-04 -.148E-04
   -.121E+03 0.405E+03 0.424E+03   0.811E+02 -.388E+03 -.426E+03   0.398E+02 -.170E+02 0.270E+01   -.555E-04 0.102E-03 0.855E-04
   -.640E+02 0.130E+03 0.232E+03   0.620E+02 -.127E+03 -.228E+03   0.232E+01 -.311E+01 -.383E+01   -.288E-04 -.715E-04 -.542E-04
 -----------------------------------------------------------------------------------------------
   -.456E+02 0.151E+02 -.154E+00   0.426E-13 0.199E-12 -.199E-12   0.456E+02 -.151E+02 0.157E+00   -.244E-03 -.154E-03 -.324E-04
 
 
 POSITION                                       TOTAL-FORCE (eV/Angst)
 -----------------------------------------------------------------------------------
     12.79043      9.38554     11.34657         0.357596     -0.104117      0.170951
      8.75875     11.31222      6.55140        -0.003711     -0.007816     -0.002035
      9.11624     10.48468      7.61029        -0.000954     -0.043634      0.004686
      9.47459     12.30603      8.99730         0.015218      0.012539      0.022694
      9.11904     13.19266      7.98704         0.010180      0.012423      0.009550
      8.75715     12.69444      6.73519        -0.000966     -0.003963      0.003354
     10.46158      6.59100     13.49490         0.021325     -0.001854      0.006994
      9.94203      7.43809     12.52376         0.047201     -0.001360      0.015945
     12.04547      8.38666     12.11872         0.079567      0.245350     -0.198726
     12.61928      7.55238     13.08448         0.225190      0.179190     -0.111186
     14.79299     10.57118     10.69264        -0.058364     -0.067470      0.053107
     14.01643     11.32257      9.80881        -0.053784     -0.024501      0.009941
     12.65158     11.07272      9.73048         0.171020     -0.030664      0.067845
      5.86694      9.53439     11.36602         0.013751      0.005158      0.004968
     14.16878      9.59490     11.46294        -0.748931      0.025060     -0.184638
     11.82695      6.64488     13.78060        -0.049309      0.011781     -0.025589
      7.24231      9.77330     11.28348         0.029305      0.007809     -0.008324
      8.15819     12.44233     13.81164         0.018547     -0.006604     -0.015825
      9.52399     12.52132     13.53212         0.011201      0.010195      0.009992
     10.05904     11.71816     12.53361        -0.025845     -0.030248     -0.026937
      7.96508     10.76003     12.08522         0.021291     -0.009444     -0.018034
      7.38092     11.55121     13.07965         0.000939     -0.002720     -0.007250
      7.45796      8.11597      9.64469         0.089036      0.000073     -0.017049
      6.09730      7.83470      9.68863        -0.023187      0.004033      0.015732
      5.28440      8.55710     10.56432         0.027535     -0.010419     -0.017397
      9.79795      5.90212     14.01497         0.000552     -0.007462      0.006203
     12.26685      5.99367     14.53463         0.021522      0.010669     -0.004789
     13.68484      7.61538     13.29576         0.006804     -0.031309      0.035455
     10.84507      7.24677      9.22597        -0.018877     -0.045608     -0.036270
      6.31582     11.46138     13.28407         0.000817      0.005206     -0.001462
      8.88327      7.42377     12.27295         0.011751      0.011224     -0.012184
      8.47853     13.36665      5.92453        -0.004005      0.005684     -0.001324
      9.12855     14.26265      8.19005         0.002160      0.001665      0.001791
      9.76183     12.67176      9.98145        -0.010342      0.018627      0.006026
     11.38256      8.36174      8.29610        -0.045689     -0.029865     -0.065872
     14.75349      8.99278     12.15530        -0.151928     -0.063603      0.024798
     14.45552     12.09620      9.18096         0.014192      0.008305     -0.009474
      9.11405      9.40258      7.49376        -0.014157     -0.002459     -0.016190
      8.12287      7.57771      8.97051        -0.009887     -0.009653     -0.010851
      5.68876      7.06123      9.04041         0.005247     -0.006071     -0.002689
     15.86530     10.74076     10.77851        -0.015367     -0.052617      0.048160
     11.11794     11.75383     12.28812         0.000637      0.026574      0.017822
      8.48240     10.86572      5.59722        -0.005346     -0.002285      0.004273
     10.17895     13.19691     14.08003         0.000549      0.003965      0.000826
      5.25320     10.11370     12.05309         0.001738     -0.001736     -0.001672
      4.21445      8.36275     10.62101        -0.004714     -0.001781     -0.002317
     12.01813     11.63958      9.05085        -0.062866     -0.060954      0.045693
      7.70887     13.05934     14.58823        -0.000731      0.007366      0.006300
      9.48490     10.95884      8.82805        -0.021799      0.035391     -0.024558
      8.03610      9.06122     10.42169        -0.111430      0.005936      0.006293
     10.70414      8.32170     11.83465         0.179777      0.214377     -0.148150
      9.30896     10.85100     11.80824        -0.099223      0.106484      0.121541
     12.02768     10.13012     10.47953        -0.207197     -0.304718      0.263759
     10.61480      8.11252      8.84309         0.018376      0.045725      0.064786
     10.01771      9.61740     10.38685         0.345582     -0.055875     -0.078695
 -----------------------------------------------------------------------------------
    total drift:                                0.006276     -0.003583      0.002935


--------------------------------------------------------------------------------------------------------



  FREE ENERGIE OF THE ION-ELECTRON SYSTEM (eV)
  ---------------------------------------------------
  free  energy   TOTEN  =      -376.82191442 eV

  energy  without entropy=     -376.82191442  energy(sigma->0) =     -376.82191442
 


--------------------------------------------------------------------------------------------------------


    POTLOK:  cpu time    7.56: real time    7.60


--------------------------------------------------------------------------------------------------------


 writing wavefunctions
     LOOP+:  cpu time 1038.07: real time 1077.97
    4ORBIT:  cpu time    0.00: real time    0.00

 total amount of memory used by VASP on root node   877132. kBytes
========================================================================

   base      :      30000. kBytes
   nonlr-proj:      19361. kBytes
   fftplans  :     269516. kBytes
   grid      :     534988. kBytes
   one-center:       1710. kBytes
   wavefun   :      21557. kBytes
 
  
  
 General timing and accounting informations for this job:
 ========================================================
  
                  Total CPU time used (sec):     1294.672
                            User time (sec):     1145.159
                          System time (sec):      149.513
                         Elapsed time (sec):     1337.970
  
                   Maximum memory used (kb):     1490572.
                   Average memory used (kb):           0.
  
                          Minor page faults:      7042217
                          Major page faults:            1
                 Voluntary context switches:       285804
