<?xml version="1.0" encoding="ISO-8859-1"?>
<modeling>
 <generator>
  <i name="program" type="string">vasp </i>
  <i name="version" type="string">5.3.5  </i>
  <i name="subversion" type="string">31Mar14 (build Apr 08 2014 12:00:03) complex                          parallel </i>
  <i name="platform" type="string">NSC-NSCPATCH-BUILD02 </i>
  <i name="date" type="string">2017 03 15 </i>
  <i name="time" type="string">18:47:14 </i>
 </generator>
 <incar>
  <i type="string" name="SYSTEM"> c2_oh2_ruthenium_mol</i>
  <i type="int" name="ISTART">     0</i>
  <i type="string" name="PREC">accurate</i>
  <i type="int" name="IALGO">    38</i>
  <i type="logical" name="ADDGRID"> T  </i>
  <i type="int" name="ISPIN">     2</i>
  <i name="BMIX">      2.00000000</i>
  <i type="int" name="ICHARG">     2</i>
  <i name="EDIFF">      0.00001000</i>
  <i name="EDIFFG">     -0.01000000</i>
  <i name="ENCUT">    700.00000000</i>
  <i name="POTIM">      0.50000000</i>
  <i name="NUPDOWN">      0.00000000</i>
  <i name="NELECT">    166.00000000</i>
  <i type="string" name="LREAL"> Auto</i>
  <i name="TIME">      0.05000000</i>
  <i type="int" name="ISMEAR">     0</i>
  <i name="SIGMA">      0.01000000</i>
  <i type="int" name="ICORELEVEL">     2</i>
  <i type="int" name="CLNT">     1</i>
  <i type="int" name="CLN">     1</i>
  <i type="int" name="INCAR     ">     0</i>
  <i name="CLZ">      0.50000000</i>
 </incar>
 <kpoints>
  <generation param="Monkhorst-Pack">
   <v type="int" name="divisions">       1        1        1 </v>
   <v name="usershift">      0.00000000       0.00000000       0.00000000 </v>
   <v name="genvec1">      1.00000000       0.00000000       0.00000000 </v>
   <v name="genvec2">      0.00000000       1.00000000       0.00000000 </v>
   <v name="genvec3">      0.00000000       0.00000000       1.00000000 </v>
   <v name="shift">      0.00000000       0.00000000       0.00000000 </v>
  </generation>
  <varray name="kpointlist" >
   <v>       0.00000000       0.00000000       0.00000000 </v>
  </varray>
  <varray name="weights" >
   <v>       1.00000000 </v>
  </varray>
 </kpoints>
 <parameters>
  <separator name="general" >
   <i type="string" name="SYSTEM">c2_oh2_ruthenium_mol</i>
   <i type="logical" name="LCOMPAT"> F  </i>
  </separator>
  <separator name="electronic" >
   <i type="string" name="PREC">accura</i>
   <i name="ENMAX">    700.00000000</i>
   <i name="ENAUG">    946.76800000</i>
   <i name="EDIFF">      0.00001000</i>
   <i type="int" name="IALGO">    38</i>
   <i type="int" name="IWAVPR">    10</i>
   <i type="int" name="NBANDS">   128</i>
   <i name="NELECT">    166.00000000</i>
   <i type="int" name="TURBO">     0</i>
   <i type="int" name="IRESTART">     0</i>
   <i type="int" name="NREBOOT">     0</i>
   <i type="int" name="NMIN">     0</i>
   <i name="EREF">      0.00000000</i>
   <separator name="electronic smearing" >
    <i type="int" name="ISMEAR">     0</i>
    <i name="SIGMA">      0.01000000</i>
    <i name="KSPACING">      0.50000000</i>
    <i type="logical" name="KGAMMA"> T  </i>
   </separator>
   <separator name="electronic projectors" >
    <i type="logical" name="LREAL"> T  </i>
    <v name="ROPT">     -0.00025000     -0.00025000     -0.00025000     -0.00025000     -0.00025000     -0.00025000</v>
    <i type="int" name="LMAXPAW">  -100</i>
    <i type="int" name="LMAXMIX">     2</i>
    <i type="logical" name="NLSPLINE"> F  </i>
   </separator>
   <separator name="electronic startup" >
    <i type="int" name="ISTART">     0</i>
    <i type="int" name="ICHARG">     2</i>
    <i type="int" name="INIWAV">     1</i>
   </separator>
   <separator name="electronic spin" >
    <i type="int" name="ISPIN">     2</i>
    <i type="logical" name="LNONCOLLINEAR"> F  </i>
    <v name="MAGMOM">      0.00000000      0.00000000      0.00000000      0.00000000      0.00000000      0.00000000      0.00000000      0.00000000      0.00000000      0.00000000      0.00000000      0.00000000      0.00000000      0.00000000      0.00000000      0.00000000      0.00000000      0.00000000      0.00000000      0.00000000
      0.00000000      0.00000000      0.00000000      0.00000000      0.00000000      0.00000000      0.00000000      0.00000000      0.00000000      0.00000000      0.00000000      0.00000000      0.00000000      0.00000000      0.00000000      0.00000000      0.00000000      0.00000000      0.00000000      0.00000000
      0.00000000      0.00000000      0.00000000      0.00000000      0.00000000      0.00000000      0.00000000      0.00000000      0.00000000      0.00000000      0.00000000      0.00000000      0.00000000      0.00000000      0.00000000</v>
    <i name="NUPDOWN">      0.00000000</i>
    <i type="logical" name="LSORBIT"> F  </i>
    <v name="SAXIS">      0.00000000      0.00000000      1.00000000</v>
    <i type="logical" name="LSPIRAL"> F  </i>
    <v name="QSPIRAL">      0.00000000      0.00000000      0.00000000</v>
    <i type="logical" name="LZEROZ"> F  </i>
   </separator>
   <separator name="electronic exchange-correlation" >
    <i type="logical" name="LASPH"> F  </i>
    <i type="logical" name="LMETAGGA"> F  </i>
   </separator>
   <separator name="electronic convergence" >
    <i type="int" name="NELM">    60</i>
    <i type="int" name="NELMDL">    -5</i>
    <i type="int" name="NELMIN">     2</i>
    <i name="ENINI">    700.00000000</i>
    <separator name="electronic convergence detail" >
     <i type="logical" name="LDIAG"> T  </i>
     <i type="logical" name="LSUBROT"> F  </i>
     <i name="WEIMIN">      0.00000000</i>
     <i name="EBREAK">      0.00000002</i>
     <i name="DEPER">      0.30000000</i>
     <i type="int" name="NRMM">     4</i>
     <i name="TIME">      0.05000000</i>
    </separator>
   </separator>
   <separator name="electronic mixer" >
    <i name="AMIX">      0.40000000</i>
    <i name="BMIX">      2.00000000</i>
    <i name="AMIN">      0.10000000</i>
    <i name="AMIX_MAG">      1.60000000</i>
    <i name="BMIX_MAG">      2.00000000</i>
    <separator name="electronic mixer details" >
     <i type="int" name="IMIX">     4</i>
     <i type="int" name="MAXMIX">   -45</i>
     <i name="WC">    100.00000000</i>
     <i type="int" name="INIMIX">     1</i>
     <i type="int" name="MIXPRE">     1</i>
     <i type="int" name="MREMOVE">     5</i>
    </separator>
   </separator>
   <separator name="electronic dipolcorrection" >
    <i type="logical" name="LDIPOL"> F  </i>
    <i type="logical" name="LMONO"> F  </i>
    <i type="int" name="IDIPOL">     0</i>
    <i name="EPSILON">      1.00000000</i>
    <v name="DIPOL">   -100.00000000   -100.00000000   -100.00000000</v>
    <i name="EFIELD">      0.00000000</i>
   </separator>
  </separator>
  <separator name="grids" >
   <i type="int" name="NGX">   180</i>
   <i type="int" name="NGY">   180</i>
   <i type="int" name="NGZ">   180</i>
   <i type="int" name="NGXF">   360</i>
   <i type="int" name="NGYF">   360</i>
   <i type="int" name="NGZF">   360</i>
   <i type="logical" name="ADDGRID"> T  </i>
  </separator>
  <separator name="ionic" >
   <i type="int" name="NSW">     0</i>
   <i type="int" name="IBRION">    -1</i>
   <i type="int" name="ISIF">     2</i>
   <i name="PSTRESS">      0.00000000</i>
   <i name="EDIFFG">     -0.01000000</i>
   <i type="int" name="NFREE">     0</i>
   <i name="POTIM">      0.50000000</i>
   <i name="SMASS">     -3.00000000</i>
   <i name="SCALEE">      1.00000000</i>
  </separator>
  <separator name="ionic md" >
   <i name="TEBEG">      0.00010000</i>
   <i name="TEEND">      0.00010000</i>
   <i type="int" name="NBLOCK">     1</i>
   <i type="int" name="KBLOCK">     1</i>
   <i type="int" name="NPACO">   256</i>
   <i name="APACO">     16.00000000</i>
  </separator>
  <separator name="symmetry" >
   <i type="int" name="ISYM">     2</i>
   <i name="SYMPREC">      0.00001000</i>
  </separator>
  <separator name="dos" >
   <i type="logical" name="LORBIT"> F  </i>
   <v name="RWIGS">     -1.00000000     -1.00000000     -1.00000000     -1.00000000     -1.00000000     -1.00000000</v>
   <i type="int" name="NEDOS">   301</i>
   <i name="EMIN">     10.00000000</i>
   <i name="EMAX">    -10.00000000</i>
   <i name="EFERMI">      0.00000000</i>
  </separator>
  <separator name="writing" >
   <i type="int" name="NWRITE">     2</i>
   <i type="logical" name="LWAVE"> T  </i>
   <i type="logical" name="LCHARG"> T  </i>
   <i type="logical" name="LPARD"> F  </i>
   <i type="logical" name="LVTOT"> F  </i>
   <i type="logical" name="LVHAR"> F  </i>
   <i type="logical" name="LELF"> F  </i>
   <i type="logical" name="LOPTICS"> F  </i>
   <v name="STM">      0.00000000      0.00000000      0.00000000      0.00000000      0.00000000      0.00000000      0.00000000</v>
  </separator>
  <separator name="performance" >
   <i type="int" name="NPAR">    64</i>
   <i type="int" name="NSIM">     4</i>
   <i type="int" name="NBLK">    -1</i>
   <i type="logical" name="LPLANE"> T  </i>
   <i type="logical" name="LSCALAPACK"> T  </i>
   <i type="logical" name="LSCAAWARE"> F  </i>
   <i type="logical" name="LSCALU"> F  </i>
   <i type="logical" name="LASYNC"> F  </i>
   <i type="logical" name="LORBITALREAL"> F  </i>
  </separator>
  <separator name="miscellaneous" >
   <i type="int" name="IDIOT">     3</i>
   <i type="logical" name="LMUSIC"> F  </i>
   <v name="POMASS">     12.01100000     12.01100000      1.00000000     14.00100000     16.00000000    101.07000000</v>
   <v name="DARWINR">      0.00000000      0.00000000      0.00000000      0.00000000      0.00000000      0.00000000</v>
   <v name="DARWINV">      1.00000000      1.00000000      1.00000000      1.00000000      1.00000000      1.00000000</v>
   <i type="logical" name="LCORR"> T  </i>
  </separator>
  <i type="logical" name="GGA_COMPAT"> T  </i>
  <i type="logical" name="LBERRY"> F  </i>
  <i type="int" name="ICORELEVEL">     2</i>
  <i type="int" name="CLNT">     1</i>
  <i type="int" name="CLN">     1</i>
  <i type="int" name="CLL">     0</i>
  <i name="CLZ">      0.50000000</i>
  <i type="logical" name="LDAU"> F  </i>
  <i type="int" name="I_CONSTRAINED_M">     0</i>
  <separator name="electronic exchange-correlation" >
   <i type="string" name="GGA">--</i>
   <i type="int" name="VOSKOWN">     0</i>
   <i type="logical" name="LHFCALC"> F  </i>
   <i type="string" name="PRECFOCK"></i>
   <i type="logical" name="LSYMGRAD"> F  </i>
   <i type="logical" name="LHFONE"> F  </i>
   <i type="logical" name="LRHFCALC"> F  </i>
   <i type="logical" name="LTHOMAS"> F  </i>
   <i type="logical" name="LMODELHF"> F  </i>
   <i name="ENCUT4O">     -1.00000000</i>
   <i type="int" name="EXXOEP">     0</i>
   <i type="int" name="FOURORBIT">     0</i>
   <i name="AEXX">      0.00000000</i>
   <i name="HFALPHA">      0.00000000</i>
   <i name="MCALPHA">      0.00000000</i>
   <i name="ALDAX">      1.00000000</i>
   <i name="AGGAX">      1.00000000</i>
   <i name="ALDAC">      1.00000000</i>
   <i name="AGGAC">      1.00000000</i>
   <i type="int" name="NKREDX">     1</i>
   <i type="int" name="NKREDY">     1</i>
   <i type="int" name="NKREDZ">     1</i>
   <i type="logical" name="SHIFTRED"> F  </i>
   <i type="logical" name="ODDONLY"> F  </i>
   <i type="logical" name="EVENONLY"> F  </i>
   <i type="int" name="LMAXFOCK">     0</i>
   <i type="int" name="NMAXFOCKAE">     0</i>
   <i type="logical" name="LFOCKAEDFT"> F  </i>
   <i name="HFSCREEN">      0.00000000</i>
   <i name="HFSCREENC">      0.00000000</i>
   <i type="int" name="NBANDSGWLOW">     0</i>
  </separator>
  <separator name="vdW DFT" >
   <i type="logical" name="LUSE_VDW"> F  </i>
   <i name="Zab_VDW">     -0.84910000</i>
   <i name="PARAM1">      0.12340000</i>
   <i name="PARAM2">      1.00000000</i>
   <i name="PARAM3">      0.00000000</i>
  </separator>
  <separator name="model GW" >
   <i type="int" name="MODEL_GW">     0</i>
   <i name="MODEL_EPS0">     87.27272727</i>
   <i name="MODEL_ALPHA">      1.00000000</i>
  </separator>
  <separator name="linear response parameters" >
   <i type="logical" name="LEPSILON"> F  </i>
   <i type="logical" name="LRPA"> F  </i>
   <i type="logical" name="LNABLA"> F  </i>
   <i type="logical" name="LVEL"> F  </i>
   <i type="int" name="KINTER">     0</i>
   <i name="CSHIFT">      0.10000000</i>
   <i name="OMEGAMAX">     -1.00000000</i>
   <i name="DEG_THRESHOLD">      0.00200000</i>
  </separator>
  <separator name="orbital magnetization" >
   <i type="logical" name="NUCIND"> F  </i>
   <v name="MAGPOS">      0.00000000      0.00000000      0.00000000</v>
   <i type="logical" name="LNICSALL"> T  </i>
   <i type="logical" name="ORBITALMAG"> F  </i>
   <i type="logical" name="LMAGBLOCH"> F  </i>
   <i type="logical" name="LCHIMAG"> F  </i>
   <i type="logical" name="LGAUGE"> T  </i>
   <i type="int" name="MAGATOM">     0</i>
   <v name="MAGDIPOL">      0.00000000      0.00000000      0.00000000</v>
   <v name="AVECCONST">      0.00000000      0.00000000      0.00000000</v>
  </separator>
  <separator name="response functions" >
   <i type="logical" name="LADDER"> F  </i>
   <i type="logical" name="LFXC"> F  </i>
   <i type="logical" name="LHARTREE"> T  </i>
   <i type="int" name="IBSE">     0</i>
   <i type="logical" name="LTCTE"> F  </i>
   <i type="logical" name="LTETE"> F  </i>
   <i type="logical" name="LTRIPLET"> F  </i>
   <i type="logical" name="LFXCEPS"> F  </i>
   <i type="logical" name="LFXHEG"> F  </i>
   <i type="logical" name="L2ORDER"> F  </i>
   <i type="logical" name="LUSEW"> F  </i>
   <i name="ENCUTGW">     -2.00000000</i>
   <i name="ENCUTGWSOFT">     -2.00000000</i>
   <i name="ENCUTLF">     -1.00000000</i>
   <i type="int" name="LMAXMP2">    -1</i>
   <i name="SCISSOR">      0.00000000</i>
   <i type="int" name="NOMEGA">     0</i>
   <i type="int" name="NOMEGAR">     0</i>
   <i type="int" name="NBANDSGW">    -1</i>
   <i type="int" name="NBANDSO">    -1</i>
   <i type="int" name="NBANDSV">    -1</i>
   <i type="int" name="NELM">     1</i>
   <i type="int" name="DIM">     3</i>
   <i type="int" name="ANTIRES">     0</i>
   <i name="OMEGAMAX">    -30.00000000</i>
   <i name="OMEGAMIN">    -30.00000000</i>
   <i name="OMEGATL">   -200.00000000</i>
   <i type="int" name="OMEGAGRID">     0</i>
   <i name="CSHIFT">     -0.10000000</i>
   <i type="logical" name="SELFENERGY"> F  </i>
   <i type="logical" name="LSPECTRAL"> F  </i>
   <i type="logical" name="ODDONLYGW"> F  </i>
   <i type="logical" name="EVENONLYGW"> F  </i>
   <i type="int" name="NKREDLFX">     1</i>
   <i type="int" name="NKREDLFY">     1</i>
   <i type="int" name="NKREDLFZ">     1</i>
   <i type="int" name="MAXMEM">  1800</i>
   <i type="int" name="TELESCOPE">     0</i>
   <i type="int" name="TAUPAR">     1</i>
  </separator>
  <separator name="External order field" >
   <i name="OFIELD_KAPPA">      0.00000000</i>
   <v name="OFIELD_K">      0.00000000      0.00000000      0.00000000</v>
   <i name="OFIELD_Q6_NEAR">      0.00000000</i>
   <i name="OFIELD_Q6_FAR">      0.00000000</i>
   <i name="OFIELD_A">      0.00000000</i>
  </separator>
 </parameters>
 <atominfo>
  <atoms>      55 </atoms>
  <types>       6 </types>
  <array name="atoms" >
   <dimension dim="1">ion</dimension>
   <field type="string">element</field>
   <field type="int">atomtype</field>
   <set>
    <rc><c>C </c><c>   1</c></rc>
    <rc><c>C </c><c>   2</c></rc>
    <rc><c>C </c><c>   2</c></rc>
    <rc><c>C </c><c>   2</c></rc>
    <rc><c>C </c><c>   2</c></rc>
    <rc><c>C </c><c>   2</c></rc>
    <rc><c>C </c><c>   2</c></rc>
    <rc><c>C </c><c>   2</c></rc>
    <rc><c>C </c><c>   2</c></rc>
    <rc><c>C </c><c>   2</c></rc>
    <rc><c>C </c><c>   2</c></rc>
    <rc><c>C </c><c>   2</c></rc>
    <rc><c>C </c><c>   2</c></rc>
    <rc><c>C </c><c>   2</c></rc>
    <rc><c>C </c><c>   2</c></rc>
    <rc><c>C </c><c>   2</c></rc>
    <rc><c>C </c><c>   2</c></rc>
    <rc><c>C </c><c>   2</c></rc>
    <rc><c>C </c><c>   2</c></rc>
    <rc><c>C </c><c>   2</c></rc>
    <rc><c>C </c><c>   2</c></rc>
    <rc><c>C </c><c>   2</c></rc>
    <rc><c>C </c><c>   2</c></rc>
    <rc><c>C </c><c>   2</c></rc>
    <rc><c>C </c><c>   2</c></rc>
    <rc><c>H </c><c>   3</c></rc>
    <rc><c>H </c><c>   3</c></rc>
    <rc><c>H </c><c>   3</c></rc>
    <rc><c>H </c><c>   3</c></rc>
    <rc><c>H </c><c>   3</c></rc>
    <rc><c>H </c><c>   3</c></rc>
    <rc><c>H </c><c>   3</c></rc>
    <rc><c>H </c><c>   3</c></rc>
    <rc><c>H </c><c>   3</c></rc>
    <rc><c>H </c><c>   3</c></rc>
    <rc><c>H </c><c>   3</c></rc>
    <rc><c>H </c><c>   3</c></rc>
    <rc><c>H </c><c>   3</c></rc>
    <rc><c>H </c><c>   3</c></rc>
    <rc><c>H </c><c>   3</c></rc>
    <rc><c>H </c><c>   3</c></rc>
    <rc><c>H </c><c>   3</c></rc>
    <rc><c>H </c><c>   3</c></rc>
    <rc><c>H </c><c>   3</c></rc>
    <rc><c>H </c><c>   3</c></rc>
    <rc><c>H </c><c>   3</c></rc>
    <rc><c>H </c><c>   3</c></rc>
    <rc><c>H </c><c>   3</c></rc>
    <rc><c>N </c><c>   4</c></rc>
    <rc><c>N </c><c>   4</c></rc>
    <rc><c>N </c><c>   4</c></rc>
    <rc><c>N </c><c>   4</c></rc>
    <rc><c>N </c><c>   4</c></rc>
    <rc><c>O </c><c>   5</c></rc>
    <rc><c>Ru</c><c>   6</c></rc>
   </set>
  </array>
  <array name="atomtypes" >
   <dimension dim="1">type</dimension>
   <field type="int">atomspertype</field>
   <field type="string">element</field>
   <field>mass</field>
   <field>valence</field>
   <field type="string">pseudopotential</field>
   <set>
    <rc><c>   1</c><c>C </c><c>     12.01100000</c><c>      4.50000000</c><c>  PAW_PBE C_h 06Feb2004                 </c></rc>
    <rc><c>  24</c><c>C </c><c>     12.01100000</c><c>      4.00000000</c><c>  PAW_PBE C_h 06Feb2004                 </c></rc>
    <rc><c>  23</c><c>H </c><c>      1.00000000</c><c>      1.00000000</c><c>  PAW_PBE H 15Jun2001                   </c></rc>
    <rc><c>   5</c><c>N </c><c>     14.00100000</c><c>      5.00000000</c><c>  PAW_PBE N_h 06Feb2004                 </c></rc>
    <rc><c>   1</c><c>O </c><c>     16.00000000</c><c>      6.00000000</c><c>  PAW_PBE O_h 06Feb2004                 </c></rc>
    <rc><c>   1</c><c>Ru</c><c>    101.07000000</c><c>     14.00000000</c><c>  PAW_PBE Ru_pv 28Jan2005               </c></rc>
   </set>
  </array>
 </atominfo>
 <structure name="initialpos" >
  <crystal>
   <varray name="basis" >
    <v>      20.00000000       0.00000000       0.00000000 </v>
    <v>       0.00000000      20.00000000       0.00000000 </v>
    <v>       0.00000000       0.00000000      20.00000000 </v>
   </varray>
   <i name="volume">   8000.00000000 </i>
   <varray name="rec_basis" >
    <v>       0.05000000       0.00000000       0.00000000 </v>
    <v>       0.00000000       0.05000000       0.00000000 </v>
    <v>       0.00000000       0.00000000       0.05000000 </v>
   </varray>
  </crystal>
  <varray name="positions" >
   <v>       0.63952130       0.46927713       0.56732841 </v>
   <v>       0.43793752       0.56561110       0.32757008 </v>
   <v>       0.45581208       0.52423376       0.38051465 </v>
   <v>       0.47372925       0.61530131       0.44986522 </v>
   <v>       0.45595175       0.65963312       0.39935201 </v>
   <v>       0.43785737       0.63472201       0.33675972 </v>
   <v>       0.52307882       0.32955005       0.67474498 </v>
   <v>       0.49710163       0.37190466       0.62618823 </v>
   <v>       0.60227374       0.41933300       0.60593616 </v>
   <v>       0.63096398       0.37761922       0.65422416 </v>
   <v>       0.73964927       0.52855915       0.53463181 </v>
   <v>       0.70082162       0.56612858       0.49044049 </v>
   <v>       0.63257913       0.55363620       0.48652424 </v>
   <v>       0.29334713       0.47671938       0.56830116 </v>
   <v>       0.70843899       0.47974495       0.57314689 </v>
   <v>       0.59134754       0.33224398       0.68903016 </v>
   <v>       0.36211554       0.48866484       0.56417415 </v>
   <v>       0.40790931       0.62211625       0.69058213 </v>
   <v>       0.47619960       0.62606623       0.67660612 </v>
   <v>       0.50295190       0.58590820       0.62668073 </v>
   <v>       0.39825425       0.53800137       0.60426081 </v>
   <v>       0.36904589       0.57756069       0.65398228 </v>
   <v>       0.37289802       0.40579857       0.48223443 </v>
   <v>       0.30486503       0.39173492       0.48443166 </v>
   <v>       0.26422003       0.42785518       0.52821594 </v>
   <v>       0.48989745       0.29510618       0.70074864 </v>
   <v>       0.61334240       0.29968355       0.72673159 </v>
   <v>       0.68424189       0.38076917       0.66478776 </v>
   <v>       0.54225374       0.36233861       0.46129841 </v>
   <v>       0.31579090       0.57306911       0.66420366 </v>
   <v>       0.44416348       0.37118871       0.61364770 </v>
   <v>       0.42392665       0.66833230       0.29622671 </v>
   <v>       0.45642762       0.71313270       0.40950260 </v>
   <v>       0.48809132       0.63358802       0.49907234 </v>
   <v>       0.56912778       0.41808713       0.41480476 </v>
   <v>       0.73767440       0.44963919       0.60776512 </v>
   <v>       0.72277620       0.60481012       0.45904817 </v>
   <v>       0.45570253       0.47012894       0.37468790 </v>
   <v>       0.40614333       0.37888556       0.44852541 </v>
   <v>       0.28443799       0.35306162       0.45202062 </v>
   <v>       0.79326502       0.53703787       0.53892527 </v>
   <v>       0.55589708       0.58769132       0.61440612 </v>
   <v>       0.42412006       0.54328620       0.27986105 </v>
   <v>       0.50894741       0.65984570       0.70400156 </v>
   <v>       0.26265982       0.50568523       0.60265428 </v>
   <v>       0.21072272       0.41813760       0.53105039 </v>
   <v>       0.60090654       0.58197914       0.45254259 </v>
   <v>       0.38544357       0.65296704       0.72941133 </v>
   <v>       0.47424490       0.54794204       0.44140236 </v>
   <v>       0.40180479       0.45306079       0.52108436 </v>
   <v>       0.53520702       0.41608490       0.59173240 </v>
   <v>       0.46544808       0.54254992       0.59041194 </v>
   <v>       0.60138410       0.50650621       0.52397638 </v>
   <v>       0.53073984       0.40562607       0.44215451 </v>
   <v>       0.50088568       0.48087016       0.51934246 </v>
  </varray>
  <varray name="selective"  type="logical" >
   <v type="logical" >  T  T  T </v>
   <v type="logical" >  T  T  T </v>
   <v type="logical" >  T  T  T </v>
   <v type="logical" >  T  T  T </v>
   <v type="logical" >  T  T  T </v>
   <v type="logical" >  T  T  T </v>
   <v type="logical" >  T  T  T </v>
   <v type="logical" >  T  T  T </v>
   <v type="logical" >  T  T  T </v>
   <v type="logical" >  T  T  T </v>
   <v type="logical" >  T  T  T </v>
   <v type="logical" >  T  T  T </v>
   <v type="logical" >  T  T  T </v>
   <v type="logical" >  T  T  T </v>
   <v type="logical" >  T  T  T </v>
   <v type="logical" >  T  T  T </v>
   <v type="logical" >  T  T  T </v>
   <v type="logical" >  T  T  T </v>
   <v type="logical" >  T  T  T </v>
   <v type="logical" >  T  T  T </v>
   <v type="logical" >  T  T  T </v>
   <v type="logical" >  T  T  T </v>
   <v type="logical" >  T  T  T </v>
   <v type="logical" >  T  T  T </v>
   <v type="logical" >  T  T  T </v>
   <v type="logical" >  T  T  T </v>
   <v type="logical" >  T  T  T </v>
   <v type="logical" >  T  T  T </v>
   <v type="logical" >  T  T  T </v>
   <v type="logical" >  T  T  T </v>
   <v type="logical" >  T  T  T </v>
   <v type="logical" >  T  T  T </v>
   <v type="logical" >  T  T  T </v>
   <v type="logical" >  T  T  T </v>
   <v type="logical" >  T  T  T </v>
   <v type="logical" >  T  T  T </v>
   <v type="logical" >  T  T  T </v>
   <v type="logical" >  T  T  T </v>
   <v type="logical" >  T  T  T </v>
   <v type="logical" >  T  T  T </v>
   <v type="logical" >  T  T  T </v>
   <v type="logical" >  T  T  T </v>
   <v type="logical" >  T  T  T </v>
   <v type="logical" >  T  T  T </v>
   <v type="logical" >  T  T  T </v>
   <v type="logical" >  T  T  T </v>
   <v type="logical" >  T  T  T </v>
   <v type="logical" >  T  T  T </v>
   <v type="logical" >  T  T  T </v>
   <v type="logical" >  T  T  T </v>
   <v type="logical" >  T  T  T </v>
   <v type="logical" >  T  T  T </v>
   <v type="logical" >  T  T  T </v>
   <v type="logical" >  T  T  T </v>
   <v type="logical" >  T  T  T </v>
  </varray>
  <nose>
   <v>      -3.00000000       0.00000000       0.00010000       0.00010000 </v>
  </nose>
 </structure>
 <calculation>
  <scstep>
   <time name="dav">   14.78   15.71</time>
   <time name="total">   22.28   23.33</time>
   <energy>
    <i name="alphaZ">     12.91687988 </i>
    <i name="ewald">  23333.82222168 </i>
    <i name="hartreedc"> -28935.53693007 </i>
    <i name="XCdc">    401.01568461 </i>
    <i name="pawpsdc">   5890.45591622 </i>
    <i name="pawaedc">  -5710.10246236 </i>
    <i name="eentropy">     -0.00001971 </i>
    <i name="bandstr">  -1674.91391102 </i>
    <i name="atom">   7593.39991119 </i>
    <i name="e_fr_energy">    911.05729042 </i>
    <i name="e_wo_entrp">    911.05731013 </i>
    <i name="e_0_energy">    911.05730028 </i>
   </energy>
  </scstep>
  <scstep>
   <time name="dav">   19.19   20.23</time>
   <time name="total">   19.21   20.24</time>
   <energy>
    <i name="e_fr_energy">    -68.89725521 </i>
    <i name="e_wo_entrp">    -68.89725521 </i>
    <i name="e_0_energy">    -68.89725521 </i>
   </energy>
  </scstep>
  <scstep>
   <time name="dav">   15.01   15.88</time>
   <time name="total">   15.01   15.89</time>
   <energy>
    <i name="e_fr_energy">   -389.24642731 </i>
    <i name="e_wo_entrp">   -389.24642731 </i>
    <i name="e_0_energy">   -389.24642731 </i>
   </energy>
  </scstep>
  <scstep>
   <time name="dav">   13.77   14.62</time>
   <time name="total">   13.79   14.64</time>
   <energy>
    <i name="e_fr_energy">   -410.51118406 </i>
    <i name="e_wo_entrp">   -410.51118406 </i>
    <i name="e_0_energy">   -410.51118406 </i>
   </energy>
  </scstep>
  <scstep>
   <time name="dav">   16.84   17.85</time>
   <time name="total">   22.15   23.19</time>
   <energy>
    <i name="e_fr_energy">   -410.78283899 </i>
    <i name="e_wo_entrp">   -410.78283899 </i>
    <i name="e_0_energy">   -410.78283899 </i>
   </energy>
  </scstep>
  <scstep>
   <time name="dav">   11.98   12.68</time>
   <time name="total">   24.89   25.72</time>
   <energy>
    <i name="e_fr_energy">   -391.43582581 </i>
    <i name="e_wo_entrp">   -391.43582581 </i>
    <i name="e_0_energy">   -391.43582581 </i>
   </energy>
  </scstep>
  <scstep>
   <time name="dav">   15.02   16.32</time>
   <time name="total">   27.73   29.07</time>
   <energy>
    <i name="e_fr_energy">   -381.82466283 </i>
    <i name="e_wo_entrp">   -381.82466283 </i>
    <i name="e_0_energy">   -381.82466283 </i>
   </energy>
  </scstep>
  <scstep>
   <time name="dav">   15.29   16.59</time>
   <time name="total">   28.10   29.44</time>
   <energy>
    <i name="e_fr_energy">   -378.02661721 </i>
    <i name="e_wo_entrp">   -378.02661721 </i>
    <i name="e_0_energy">   -378.02661721 </i>
   </energy>
  </scstep>
  <scstep>
   <time name="dav">   15.09   16.38</time>
   <time name="total">   27.85   29.19</time>
   <energy>
    <i name="e_fr_energy">   -377.06981115 </i>
    <i name="e_wo_entrp">   -377.06981115 </i>
    <i name="e_0_energy">   -377.06981115 </i>
   </energy>
  </scstep>
  <scstep>
   <time name="dav">   15.26   16.57</time>
   <time name="total">   28.03   29.44</time>
   <energy>
    <i name="e_fr_energy">   -377.03989655 </i>
    <i name="e_wo_entrp">   -377.03989655 </i>
    <i name="e_0_energy">   -377.03989655 </i>
   </energy>
  </scstep>
  <scstep>
   <time name="dav">   15.05   16.33</time>
   <time name="total">   27.87   29.17</time>
   <energy>
    <i name="e_fr_energy">   -376.91297221 </i>
    <i name="e_wo_entrp">   -376.91297221 </i>
    <i name="e_0_energy">   -376.91297221 </i>
   </energy>
  </scstep>
  <scstep>
   <time name="dav">   15.45   16.72</time>
   <time name="total">   28.25   29.55</time>
   <energy>
    <i name="e_fr_energy">   -376.82816825 </i>
    <i name="e_wo_entrp">   -376.82816825 </i>
    <i name="e_0_energy">   -376.82816825 </i>
   </energy>
  </scstep>
  <scstep>
   <time name="dav">   15.06   16.34</time>
   <time name="total">   27.80   29.10</time>
   <energy>
    <i name="e_fr_energy">   -376.80644509 </i>
    <i name="e_wo_entrp">   -376.80644509 </i>
    <i name="e_0_energy">   -376.80644509 </i>
   </energy>
  </scstep>
  <scstep>
   <time name="dav">   15.45   16.71</time>
   <time name="total">   28.27   29.56</time>
   <energy>
    <i name="e_fr_energy">   -376.79015954 </i>
    <i name="e_wo_entrp">   -376.79015954 </i>
    <i name="e_0_energy">   -376.79015954 </i>
   </energy>
  </scstep>
  <scstep>
   <time name="dav">   15.04   16.33</time>
   <time name="total">   27.80   29.10</time>
   <energy>
    <i name="e_fr_energy">   -376.79008069 </i>
    <i name="e_wo_entrp">   -376.79008069 </i>
    <i name="e_0_energy">   -376.79008069 </i>
   </energy>
  </scstep>
  <scstep>
   <time name="dav">   15.58   16.83</time>
   <time name="total">   28.35   29.62</time>
   <energy>
    <i name="e_fr_energy">   -376.79492110 </i>
    <i name="e_wo_entrp">   -376.79492110 </i>
    <i name="e_0_energy">   -376.79492110 </i>
   </energy>
  </scstep>
  <scstep>
   <time name="dav">   15.06   16.33</time>
   <time name="total">   27.78   29.07</time>
   <energy>
    <i name="e_fr_energy">   -376.80471815 </i>
    <i name="e_wo_entrp">   -376.80471815 </i>
    <i name="e_0_energy">   -376.80471815 </i>
   </energy>
  </scstep>
  <scstep>
   <time name="dav">   15.23   16.49</time>
   <time name="total">   28.09   29.37</time>
   <energy>
    <i name="e_fr_energy">   -376.80862934 </i>
    <i name="e_wo_entrp">   -376.80862934 </i>
    <i name="e_0_energy">   -376.80862934 </i>
   </energy>
  </scstep>
  <scstep>
   <time name="dav">   15.06   16.33</time>
   <time name="total">   27.97   29.26</time>
   <energy>
    <i name="e_fr_energy">   -376.81265065 </i>
    <i name="e_wo_entrp">   -376.81265065 </i>
    <i name="e_0_energy">   -376.81265065 </i>
   </energy>
  </scstep>
  <scstep>
   <time name="dav">   15.25   16.51</time>
   <time name="total">   28.41   29.69</time>
   <energy>
    <i name="e_fr_energy">   -376.81628974 </i>
    <i name="e_wo_entrp">   -376.81628974 </i>
    <i name="e_0_energy">   -376.81628974 </i>
   </energy>
  </scstep>
  <scstep>
   <time name="dav">   15.05   16.33</time>
   <time name="total">   27.89   29.19</time>
   <energy>
    <i name="e_fr_energy">   -376.81806666 </i>
    <i name="e_wo_entrp">   -376.81806666 </i>
    <i name="e_0_energy">   -376.81806666 </i>
   </energy>
  </scstep>
  <scstep>
   <time name="dav">   15.16   16.45</time>
   <time name="total">   28.13   29.45</time>
   <energy>
    <i name="e_fr_energy">   -376.81976853 </i>
    <i name="e_wo_entrp">   -376.81976853 </i>
    <i name="e_0_energy">   -376.81976853 </i>
   </energy>
  </scstep>
  <scstep>
   <time name="dav">   15.17   16.45</time>
   <time name="total">   27.99   29.31</time>
   <energy>
    <i name="e_fr_energy">   -376.82071502 </i>
    <i name="e_wo_entrp">   -376.82071502 </i>
    <i name="e_0_energy">   -376.82071502 </i>
   </energy>
  </scstep>
  <scstep>
   <time name="dav">   13.28   14.44</time>
   <time name="total">   26.19   27.40</time>
   <energy>
    <i name="e_fr_energy">   -376.82117830 </i>
    <i name="e_wo_entrp">   -376.82117830 </i>
    <i name="e_0_energy">   -376.82117830 </i>
   </energy>
  </scstep>
  <scstep>
   <time name="dav">   13.09   14.28</time>
   <time name="total">   26.15   27.36</time>
   <energy>
    <i name="e_fr_energy">   -376.82156854 </i>
    <i name="e_wo_entrp">   -376.82156854 </i>
    <i name="e_0_energy">   -376.82156854 </i>
   </energy>
  </scstep>
  <scstep>
   <time name="dav">   13.25   14.42</time>
   <time name="total">   26.13   27.34</time>
   <energy>
    <i name="e_fr_energy">   -376.82167958 </i>
    <i name="e_wo_entrp">   -376.82167958 </i>
    <i name="e_0_energy">   -376.82167958 </i>
   </energy>
  </scstep>
  <scstep>
   <time name="dav">   13.10   14.28</time>
   <time name="total">   26.01   27.23</time>
   <energy>
    <i name="e_fr_energy">   -376.82179168 </i>
    <i name="e_wo_entrp">   -376.82179168 </i>
    <i name="e_0_energy">   -376.82179168 </i>
   </energy>
  </scstep>
  <scstep>
   <time name="dav">   13.10   14.26</time>
   <time name="total">   25.67   27.19</time>
   <energy>
    <i name="e_fr_energy">   -376.82186530 </i>
    <i name="e_wo_entrp">   -376.82186530 </i>
    <i name="e_0_energy">   -376.82186530 </i>
   </energy>
  </scstep>
  <scstep>
   <time name="dav">   13.29   14.49</time>
   <time name="total">   26.23   27.48</time>
   <energy>
    <i name="e_fr_energy">   -376.82188287 </i>
    <i name="e_wo_entrp">   -376.82188287 </i>
    <i name="e_0_energy">   -376.82188287 </i>
   </energy>
  </scstep>
  <scstep>
   <time name="dav">   13.21   14.38</time>
   <time name="total">   26.10   27.30</time>
   <energy>
    <i name="e_fr_energy">   -376.82190621 </i>
    <i name="e_wo_entrp">   -376.82190621 </i>
    <i name="e_0_energy">   -376.82190621 </i>
   </energy>
  </scstep>
  <scstep>
   <time name="dav">   13.26   14.41</time>
   <time name="total">   20.90   22.08</time>
   <energy>
    <i name="alphaZ">     12.91687988 </i>
    <i name="ewald">  23333.82222168 </i>
    <i name="hartreedc"> -29165.68828209 </i>
    <i name="XCdc">    424.18614388 </i>
    <i name="pawpsdc">  81078.86372109 </i>
    <i name="pawaedc"> -80905.67255829 </i>
    <i name="eentropy">     -0.00000000 </i>
    <i name="bandstr">  -2748.64995176 </i>
    <i name="atom">   7593.39991119 </i>
    <i name="e_fr_energy">   -376.82191442 </i>
    <i name="e_wo_entrp">   -376.82191442 </i>
    <i name="e_0_energy">   -376.82191442 </i>
   </energy>
  </scstep>
  <structure>
   <crystal>
    <varray name="basis" >
     <v>      20.00000000       0.00000000       0.00000000 </v>
     <v>       0.00000000      20.00000000       0.00000000 </v>
     <v>       0.00000000       0.00000000      20.00000000 </v>
    </varray>
    <i name="volume">   8000.00000000 </i>
    <varray name="rec_basis" >
     <v>       0.05000000       0.00000000       0.00000000 </v>
     <v>       0.00000000       0.05000000       0.00000000 </v>
     <v>       0.00000000       0.00000000       0.05000000 </v>
    </varray>
   </crystal>
   <varray name="positions" >
    <v>       0.63952130       0.46927713       0.56732841 </v>
    <v>       0.43793752       0.56561110       0.32757008 </v>
    <v>       0.45581208       0.52423376       0.38051465 </v>
    <v>       0.47372925       0.61530131       0.44986522 </v>
    <v>       0.45595175       0.65963312       0.39935201 </v>
    <v>       0.43785737       0.63472201       0.33675972 </v>
    <v>       0.52307882       0.32955005       0.67474498 </v>
    <v>       0.49710163       0.37190466       0.62618823 </v>
    <v>       0.60227374       0.41933300       0.60593616 </v>
    <v>       0.63096398       0.37761922       0.65422416 </v>
    <v>       0.73964927       0.52855915       0.53463181 </v>
    <v>       0.70082162       0.56612858       0.49044049 </v>
    <v>       0.63257913       0.55363620       0.48652424 </v>
    <v>       0.29334713       0.47671938       0.56830116 </v>
    <v>       0.70843899       0.47974495       0.57314689 </v>
    <v>       0.59134754       0.33224398       0.68903016 </v>
    <v>       0.36211554       0.48866484       0.56417415 </v>
    <v>       0.40790931       0.62211625       0.69058213 </v>
    <v>       0.47619960       0.62606623       0.67660612 </v>
    <v>       0.50295190       0.58590820       0.62668073 </v>
    <v>       0.39825425       0.53800137       0.60426081 </v>
    <v>       0.36904589       0.57756069       0.65398228 </v>
    <v>       0.37289802       0.40579857       0.48223443 </v>
    <v>       0.30486503       0.39173492       0.48443166 </v>
    <v>       0.26422003       0.42785518       0.52821594 </v>
    <v>       0.48989745       0.29510618       0.70074864 </v>
    <v>       0.61334240       0.29968355       0.72673159 </v>
    <v>       0.68424189       0.38076917       0.66478776 </v>
    <v>       0.54225374       0.36233861       0.46129841 </v>
    <v>       0.31579090       0.57306911       0.66420366 </v>
    <v>       0.44416348       0.37118871       0.61364770 </v>
    <v>       0.42392665       0.66833230       0.29622671 </v>
    <v>       0.45642762       0.71313270       0.40950260 </v>
    <v>       0.48809132       0.63358802       0.49907234 </v>
    <v>       0.56912778       0.41808713       0.41480476 </v>
    <v>       0.73767440       0.44963919       0.60776512 </v>
    <v>       0.72277620       0.60481012       0.45904817 </v>
    <v>       0.45570253       0.47012894       0.37468790 </v>
    <v>       0.40614333       0.37888556       0.44852541 </v>
    <v>       0.28443799       0.35306162       0.45202062 </v>
    <v>       0.79326502       0.53703787       0.53892527 </v>
    <v>       0.55589708       0.58769132       0.61440612 </v>
    <v>       0.42412006       0.54328620       0.27986105 </v>
    <v>       0.50894741       0.65984570       0.70400156 </v>
    <v>       0.26265982       0.50568523       0.60265428 </v>
    <v>       0.21072272       0.41813760       0.53105039 </v>
    <v>       0.60090654       0.58197914       0.45254259 </v>
    <v>       0.38544357       0.65296704       0.72941133 </v>
    <v>       0.47424490       0.54794204       0.44140236 </v>
    <v>       0.40180479       0.45306079       0.52108436 </v>
    <v>       0.53520702       0.41608490       0.59173240 </v>
    <v>       0.46544808       0.54254992       0.59041194 </v>
    <v>       0.60138410       0.50650621       0.52397638 </v>
    <v>       0.53073984       0.40562607       0.44215451 </v>
    <v>       0.50088568       0.48087016       0.51934246 </v>
   </varray>
  </structure>
  <varray name="forces" >
   <v>       0.35759583      -0.10411695       0.17095093 </v>
   <v>      -0.00371092      -0.00781578      -0.00203454 </v>
   <v>      -0.00095358      -0.04363412       0.00468555 </v>
   <v>       0.01521758       0.01253872       0.02269429 </v>
   <v>       0.01017966       0.01242281       0.00955018 </v>
   <v>      -0.00096559      -0.00396295       0.00335361 </v>
   <v>       0.02132511      -0.00185420       0.00699420 </v>
   <v>       0.04720128      -0.00136016       0.01594547 </v>
   <v>       0.07956747       0.24535020      -0.19872574 </v>
   <v>       0.22518985       0.17918979      -0.11118574 </v>
   <v>      -0.05836424      -0.06746955       0.05310697 </v>
   <v>      -0.05378364      -0.02450058       0.00994141 </v>
   <v>       0.17101998      -0.03066379       0.06784493 </v>
   <v>       0.01375120       0.00515838       0.00496767 </v>
   <v>      -0.74893090       0.02505991      -0.18463800 </v>
   <v>      -0.04930863       0.01178110      -0.02558922 </v>
   <v>       0.02930494       0.00780904      -0.00832394 </v>
   <v>       0.01854738      -0.00660415      -0.01582520 </v>
   <v>       0.01120117       0.01019471       0.00999197 </v>
   <v>      -0.02584456      -0.03024788      -0.02693743 </v>
   <v>       0.02129140      -0.00944398      -0.01803363 </v>
   <v>       0.00093943      -0.00272044      -0.00725035 </v>
   <v>       0.08903573       0.00007272      -0.01704912 </v>
   <v>      -0.02318705       0.00403293       0.01573247 </v>
   <v>       0.02753492      -0.01041857      -0.01739658 </v>
   <v>       0.00055205      -0.00746160       0.00620333 </v>
   <v>       0.02152164       0.01066939      -0.00478876 </v>
   <v>       0.00680433      -0.03130930       0.03545478 </v>
   <v>      -0.01887703      -0.04560827      -0.03626971 </v>
   <v>       0.00081728       0.00520620      -0.00146199 </v>
   <v>       0.01175064       0.01122381      -0.01218411 </v>
   <v>      -0.00400526       0.00568378      -0.00132411 </v>
   <v>       0.00216005       0.00166529       0.00179122 </v>
   <v>      -0.01034237       0.01862664       0.00602594 </v>
   <v>      -0.04568858      -0.02986490      -0.06587198 </v>
   <v>      -0.15192790      -0.06360254       0.02479799 </v>
   <v>       0.01419203       0.00830460      -0.00947363 </v>
   <v>      -0.01415696      -0.00245922      -0.01619037 </v>
   <v>      -0.00988748      -0.00965331      -0.01085100 </v>
   <v>       0.00524707      -0.00607078      -0.00268893 </v>
   <v>      -0.01536718      -0.05261725       0.04815959 </v>
   <v>       0.00063694       0.02657421       0.01782194 </v>
   <v>      -0.00534567      -0.00228508       0.00427268 </v>
   <v>       0.00054873       0.00396451       0.00082604 </v>
   <v>       0.00173811      -0.00173601      -0.00167159 </v>
   <v>      -0.00471413      -0.00178076      -0.00231697 </v>
   <v>      -0.06286646      -0.06095376       0.04569347 </v>
   <v>      -0.00073083       0.00736645       0.00630047 </v>
   <v>      -0.02179905       0.03539104      -0.02455794 </v>
   <v>      -0.11142982       0.00593587       0.00629294 </v>
   <v>       0.17977659       0.21437720      -0.14815011 </v>
   <v>      -0.09922266       0.10648419       0.12154067 </v>
   <v>      -0.20719667      -0.30471791       0.26375889 </v>
   <v>       0.01837638       0.04572547       0.06478587 </v>
   <v>       0.34558242      -0.05587519      -0.07869476 </v>
  </varray>
  <varray name="stress" >
   <v>      -3.15843321      -0.20557502       0.07301223 </v>
   <v>      -0.20557500      -2.84658259       0.25683001 </v>
   <v>       0.07301220       0.25683002      -2.80703342 </v>
  </varray>
  <energy>
   <i name="e_fr_energy">   -376.82191442 </i>
   <i name="e_wo_entrp">   -376.82191442 </i>
   <i name="e_0_energy">     -0.00000000 </i>
  </energy>
  <time name="totalsc"> 1038.07 1077.97</time>
  <eigenvalues>
   <array>
    <dimension dim="1">band</dimension>
    <dimension dim="2">kpoint</dimension>
    <dimension dim="3">spin</dimension>
    <field>eigene</field>
    <field>occ</field>
    <set>
     <set comment="spin 1">
      <set comment="kpoint 1">
       <r>  -49.2387    1.0000 </r>
       <r>  -49.0903    1.0000 </r>
       <r>  -48.8538    1.0000 </r>
       <r>  -29.2848    1.0000 </r>
       <r>  -28.0810    1.0000 </r>
       <r>  -26.9199    1.0000 </r>
       <r>  -26.7648    1.0000 </r>
       <r>  -26.2003    1.0000 </r>
       <r>  -26.1772    1.0000 </r>
       <r>  -23.6240    1.0000 </r>
       <r>  -23.2806    1.0000 </r>
       <r>  -22.6682    1.0000 </r>
       <r>  -22.4517    1.0000 </r>
       <r>  -22.3484    1.0000 </r>
       <r>  -22.2162    1.0000 </r>
       <r>  -22.0434    1.0000 </r>
       <r>  -21.5732    1.0000 </r>
       <r>  -21.1188    1.0000 </r>
       <r>  -20.8206    1.0000 </r>
       <r>  -19.6413    1.0000 </r>
       <r>  -19.4000    1.0000 </r>
       <r>  -18.7593    1.0000 </r>
       <r>  -18.4738    1.0000 </r>
       <r>  -18.2672    1.0000 </r>
       <r>  -18.0737    1.0000 </r>
       <r>  -17.8547    1.0000 </r>
       <r>  -17.6425    1.0000 </r>
       <r>  -17.6284    1.0000 </r>
       <r>  -17.3313    1.0000 </r>
       <r>  -16.9540    1.0000 </r>
       <r>  -16.6980    1.0000 </r>
       <r>  -15.9207    1.0000 </r>
       <r>  -15.7159    1.0000 </r>
       <r>  -15.2952    1.0000 </r>
       <r>  -15.2163    1.0000 </r>
       <r>  -14.7979    1.0000 </r>
       <r>  -14.7682    1.0000 </r>
       <r>  -14.7303    1.0000 </r>
       <r>  -14.4885    1.0000 </r>
       <r>  -14.3830    1.0000 </r>
       <r>  -14.1299    1.0000 </r>
       <r>  -14.0376    1.0000 </r>
       <r>  -13.9717    1.0000 </r>
       <r>  -13.9551    1.0000 </r>
       <r>  -13.8200    1.0000 </r>
       <r>  -13.6300    1.0000 </r>
       <r>  -13.4794    1.0000 </r>
       <r>  -13.4143    1.0000 </r>
       <r>  -13.2464    1.0000 </r>
       <r>  -13.1380    1.0000 </r>
       <r>  -12.9566    1.0000 </r>
       <r>  -12.8813    1.0000 </r>
       <r>  -12.8336    1.0000 </r>
       <r>  -12.7075    1.0000 </r>
       <r>  -12.6036    1.0000 </r>
       <r>  -12.4493    1.0000 </r>
       <r>  -12.2970    1.0000 </r>
       <r>  -12.1833    1.0000 </r>
       <r>  -12.1367    1.0000 </r>
       <r>  -11.9694    1.0000 </r>
       <r>  -11.6525    1.0000 </r>
       <r>  -11.6209    1.0000 </r>
       <r>  -11.4084    1.0000 </r>
       <r>  -11.1819    1.0000 </r>
       <r>  -11.0975    1.0000 </r>
       <r>  -10.8740    1.0000 </r>
       <r>  -10.7713    1.0000 </r>
       <r>  -10.7112    1.0000 </r>
       <r>  -10.5799    1.0000 </r>
       <r>  -10.5029    1.0000 </r>
       <r>  -10.1849    1.0000 </r>
       <r>  -10.1547    1.0000 </r>
       <r>   -9.9322    1.0000 </r>
       <r>   -9.7965    1.0000 </r>
       <r>   -9.7501    1.0000 </r>
       <r>   -9.6615    1.0000 </r>
       <r>   -9.3896    1.0000 </r>
       <r>   -9.0829    1.0000 </r>
       <r>   -8.7426    1.0000 </r>
       <r>   -8.3964    1.0000 </r>
       <r>   -7.5910    1.0000 </r>
       <r>   -7.3744    1.0000 </r>
       <r>   -7.2311    1.0000 </r>
       <r>   -5.8956    0.0000 </r>
       <r>   -4.9873    0.0000 </r>
       <r>   -4.9260    0.0000 </r>
       <r>   -4.4807    0.0000 </r>
       <r>   -4.1764    0.0000 </r>
       <r>   -4.1214    0.0000 </r>
       <r>   -3.9816    0.0000 </r>
       <r>   -3.9627    0.0000 </r>
       <r>   -3.5982    0.0000 </r>
       <r>   -3.4750    0.0000 </r>
       <r>   -3.2889    0.0000 </r>
       <r>   -2.9791    0.0000 </r>
       <r>   -2.7361    0.0000 </r>
       <r>   -1.8789    0.0000 </r>
       <r>   -1.7358    0.0000 </r>
       <r>   -1.6338    0.0000 </r>
       <r>   -1.4084    0.0000 </r>
       <r>   -1.2710    0.0000 </r>
       <r>   -1.1892    0.0000 </r>
       <r>   -1.1040    0.0000 </r>
       <r>   -0.9961    0.0000 </r>
       <r>   -0.9496    0.0000 </r>
       <r>   -0.7059    0.0000 </r>
       <r>   -0.6585    0.0000 </r>
       <r>   -0.6399    0.0000 </r>
       <r>   -0.5401    0.0000 </r>
       <r>   -0.4319    0.0000 </r>
       <r>   -0.4206    0.0000 </r>
       <r>   -0.3141    0.0000 </r>
       <r>   -0.3110    0.0000 </r>
       <r>   -0.1723    0.0000 </r>
       <r>   -0.0536    0.0000 </r>
       <r>   -0.0049    0.0000 </r>
       <r>    0.0067    0.0000 </r>
       <r>    0.0828    0.0000 </r>
       <r>    0.1488    0.0000 </r>
       <r>    0.2232    0.0000 </r>
       <r>    0.2932    0.0000 </r>
       <r>    0.3904    0.0000 </r>
       <r>    0.4068    0.0000 </r>
       <r>    0.4681    0.0000 </r>
       <r>    0.5408    0.0000 </r>
       <r>    0.5935    0.0000 </r>
       <r>    0.6259    0.0000 </r>
       <r>    0.6765    0.0000 </r>
      </set>
     </set>
     <set comment="spin 2">
      <set comment="kpoint 1">
       <r>  -49.2387    1.0000 </r>
       <r>  -49.0903    1.0000 </r>
       <r>  -48.8538    1.0000 </r>
       <r>  -29.2848    1.0000 </r>
       <r>  -28.0810    1.0000 </r>
       <r>  -26.9198    1.0000 </r>
       <r>  -26.7648    1.0000 </r>
       <r>  -26.2003    1.0000 </r>
       <r>  -26.1772    1.0000 </r>
       <r>  -23.6240    1.0000 </r>
       <r>  -23.2806    1.0000 </r>
       <r>  -22.6682    1.0000 </r>
       <r>  -22.4517    1.0000 </r>
       <r>  -22.3484    1.0000 </r>
       <r>  -22.2162    1.0000 </r>
       <r>  -22.0434    1.0000 </r>
       <r>  -21.5732    1.0000 </r>
       <r>  -21.1188    1.0000 </r>
       <r>  -20.8206    1.0000 </r>
       <r>  -19.6413    1.0000 </r>
       <r>  -19.4000    1.0000 </r>
       <r>  -18.7593    1.0000 </r>
       <r>  -18.4738    1.0000 </r>
       <r>  -18.2672    1.0000 </r>
       <r>  -18.0737    1.0000 </r>
       <r>  -17.8547    1.0000 </r>
       <r>  -17.6425    1.0000 </r>
       <r>  -17.6284    1.0000 </r>
       <r>  -17.3313    1.0000 </r>
       <r>  -16.9540    1.0000 </r>
       <r>  -16.6980    1.0000 </r>
       <r>  -15.9207    1.0000 </r>
       <r>  -15.7159    1.0000 </r>
       <r>  -15.2952    1.0000 </r>
       <r>  -15.2163    1.0000 </r>
       <r>  -14.7979    1.0000 </r>
       <r>  -14.7682    1.0000 </r>
       <r>  -14.7303    1.0000 </r>
       <r>  -14.4885    1.0000 </r>
       <r>  -14.3830    1.0000 </r>
       <r>  -14.1299    1.0000 </r>
       <r>  -14.0376    1.0000 </r>
       <r>  -13.9717    1.0000 </r>
       <r>  -13.9551    1.0000 </r>
       <r>  -13.8200    1.0000 </r>
       <r>  -13.6300    1.0000 </r>
       <r>  -13.4794    1.0000 </r>
       <r>  -13.4143    1.0000 </r>
       <r>  -13.2464    1.0000 </r>
       <r>  -13.1380    1.0000 </r>
       <r>  -12.9566    1.0000 </r>
       <r>  -12.8813    1.0000 </r>
       <r>  -12.8336    1.0000 </r>
       <r>  -12.7075    1.0000 </r>
       <r>  -12.6036    1.0000 </r>
       <r>  -12.4493    1.0000 </r>
       <r>  -12.2970    1.0000 </r>
       <r>  -12.1833    1.0000 </r>
       <r>  -12.1367    1.0000 </r>
       <r>  -11.9694    1.0000 </r>
       <r>  -11.6525    1.0000 </r>
       <r>  -11.6209    1.0000 </r>
       <r>  -11.4084    1.0000 </r>
       <r>  -11.1819    1.0000 </r>
       <r>  -11.0975    1.0000 </r>
       <r>  -10.8740    1.0000 </r>
       <r>  -10.7713    1.0000 </r>
       <r>  -10.7112    1.0000 </r>
       <r>  -10.5799    1.0000 </r>
       <r>  -10.5029    1.0000 </r>
       <r>  -10.1849    1.0000 </r>
       <r>  -10.1547    1.0000 </r>
       <r>   -9.9322    1.0000 </r>
       <r>   -9.7965    1.0000 </r>
       <r>   -9.7501    1.0000 </r>
       <r>   -9.6615    1.0000 </r>
       <r>   -9.3896    1.0000 </r>
       <r>   -9.0829    1.0000 </r>
       <r>   -8.7426    1.0000 </r>
       <r>   -8.3964    1.0000 </r>
       <r>   -7.5910    1.0000 </r>
       <r>   -7.3744    1.0000 </r>
       <r>   -7.2311    1.0000 </r>
       <r>   -5.8956    0.0000 </r>
       <r>   -4.9873    0.0000 </r>
       <r>   -4.9260    0.0000 </r>
       <r>   -4.4807    0.0000 </r>
       <r>   -4.1764    0.0000 </r>
       <r>   -4.1214    0.0000 </r>
       <r>   -3.9816    0.0000 </r>
       <r>   -3.9627    0.0000 </r>
       <r>   -3.5982    0.0000 </r>
       <r>   -3.4750    0.0000 </r>
       <r>   -3.2889    0.0000 </r>
       <r>   -2.9791    0.0000 </r>
       <r>   -2.7361    0.0000 </r>
       <r>   -1.8789    0.0000 </r>
       <r>   -1.7358    0.0000 </r>
       <r>   -1.6338    0.0000 </r>
       <r>   -1.4084    0.0000 </r>
       <r>   -1.2710    0.0000 </r>
       <r>   -1.1892    0.0000 </r>
       <r>   -1.1040    0.0000 </r>
       <r>   -0.9961    0.0000 </r>
       <r>   -0.9496    0.0000 </r>
       <r>   -0.7059    0.0000 </r>
       <r>   -0.6585    0.0000 </r>
       <r>   -0.6399    0.0000 </r>
       <r>   -0.5401    0.0000 </r>
       <r>   -0.4319    0.0000 </r>
       <r>   -0.4206    0.0000 </r>
       <r>   -0.3141    0.0000 </r>
       <r>   -0.3110    0.0000 </r>
       <r>   -0.1723    0.0000 </r>
       <r>   -0.0536    0.0000 </r>
       <r>   -0.0049    0.0000 </r>
       <r>    0.0067    0.0000 </r>
       <r>    0.0828    0.0000 </r>
       <r>    0.1488    0.0000 </r>
       <r>    0.2232    0.0000 </r>
       <r>    0.2932    0.0000 </r>
       <r>    0.3904    0.0000 </r>
       <r>    0.4068    0.0000 </r>
       <r>    0.4681    0.0000 </r>
       <r>    0.5408    0.0000 </r>
       <r>    0.5935    0.0000 </r>
       <r>    0.6259    0.0000 </r>
       <r>    0.6764    0.0000 </r>
      </set>
     </set>
    </set>
   </array>
  </eigenvalues>
  <separator name="orbital magnetization" >
   <v name="MAGDIPOLOUT">      0.00000000      0.00000000      0.00000000</v>
  </separator>
  <dos>
   <i name="efermi">     -7.16854327 </i>
   <total>
    <array>
     <dimension dim="1">gridpoints</dimension>
     <dimension dim="2">spin</dimension>
     <field>energy</field>
     <field>total</field>
     <field>integrated</field>
     <set>
      <set comment="spin 1">
       <r>   -51.7345     0.0000     0.0000 </r>
       <r>   -51.5514     0.0000     0.0000 </r>
       <r>   -51.3684     0.0000     0.0000 </r>
       <r>   -51.1854     0.0000     0.0000 </r>
       <r>   -51.0024     0.0000     0.0000 </r>
       <r>   -50.8194     0.0000     0.0000 </r>
       <r>   -50.6363     0.0000     0.0000 </r>
       <r>   -50.4533     0.0000     0.0000 </r>
       <r>   -50.2703     0.0000     0.0000 </r>
       <r>   -50.0873     0.0000     0.0000 </r>
       <r>   -49.9042     0.0000     0.0000 </r>
       <r>   -49.7212     0.0000     0.0000 </r>
       <r>   -49.5382     0.0000     0.0000 </r>
       <r>   -49.3552     0.0000     0.0000 </r>
       <r>   -49.1722    10.9276     2.0000 </r>
       <r>   -48.9891     0.0000     4.0000 </r>
       <r>   -48.8061    10.9276     6.0000 </r>
       <r>   -48.6231     0.0000     6.0000 </r>
       <r>   -48.4401     0.0000     6.0000 </r>
       <r>   -48.2570     0.0000     6.0000 </r>
       <r>   -48.0740     0.0000     6.0000 </r>
       <r>   -47.8910     0.0000     6.0000 </r>
       <r>   -47.7080     0.0000     6.0000 </r>
       <r>   -47.5250     0.0000     6.0000 </r>
       <r>   -47.3419     0.0000     6.0000 </r>
       <r>   -47.1589     0.0000     6.0000 </r>
       <r>   -46.9759     0.0000     6.0000 </r>
       <r>   -46.7929     0.0000     6.0000 </r>
       <r>   -46.6098     0.0000     6.0000 </r>
       <r>   -46.4268     0.0000     6.0000 </r>
       <r>   -46.2438     0.0000     6.0000 </r>
       <r>   -46.0608     0.0000     6.0000 </r>
       <r>   -45.8778     0.0000     6.0000 </r>
       <r>   -45.6947     0.0000     6.0000 </r>
       <r>   -45.5117     0.0000     6.0000 </r>
       <r>   -45.3287     0.0000     6.0000 </r>
       <r>   -45.1457     0.0000     6.0000 </r>
       <r>   -44.9626     0.0000     6.0000 </r>
       <r>   -44.7796     0.0000     6.0000 </r>
       <r>   -44.5966     0.0000     6.0000 </r>
       <r>   -44.4136     0.0000     6.0000 </r>
       <r>   -44.2306     0.0000     6.0000 </r>
       <r>   -44.0475     0.0000     6.0000 </r>
       <r>   -43.8645     0.0000     6.0000 </r>
       <r>   -43.6815     0.0000     6.0000 </r>
       <r>   -43.4985     0.0000     6.0000 </r>
       <r>   -43.3154     0.0000     6.0000 </r>
       <r>   -43.1324     0.0000     6.0000 </r>
       <r>   -42.9494     0.0000     6.0000 </r>
       <r>   -42.7664     0.0000     6.0000 </r>
       <r>   -42.5834     0.0000     6.0000 </r>
       <r>   -42.4003     0.0000     6.0000 </r>
       <r>   -42.2173     0.0000     6.0000 </r>
       <r>   -42.0343     0.0000     6.0000 </r>
       <r>   -41.8513     0.0000     6.0000 </r>
       <r>   -41.6682     0.0000     6.0000 </r>
       <r>   -41.4852     0.0000     6.0000 </r>
       <r>   -41.3022     0.0000     6.0000 </r>
       <r>   -41.1192     0.0000     6.0000 </r>
       <r>   -40.9362     0.0000     6.0000 </r>
       <r>   -40.7531     0.0000     6.0000 </r>
       <r>   -40.5701     0.0000     6.0000 </r>
       <r>   -40.3871     0.0000     6.0000 </r>
       <r>   -40.2041     0.0000     6.0000 </r>
       <r>   -40.0210     0.0000     6.0000 </r>
       <r>   -39.8380     0.0000     6.0000 </r>
       <r>   -39.6550     0.0000     6.0000 </r>
       <r>   -39.4720     0.0000     6.0000 </r>
       <r>   -39.2890     0.0000     6.0000 </r>
       <r>   -39.1059     0.0000     6.0000 </r>
       <r>   -38.9229     0.0000     6.0000 </r>
       <r>   -38.7399     0.0000     6.0000 </r>
       <r>   -38.5569     0.0000     6.0000 </r>
       <r>   -38.3738     0.0000     6.0000 </r>
       <r>   -38.1908     0.0000     6.0000 </r>
       <r>   -38.0078     0.0000     6.0000 </r>
       <r>   -37.8248     0.0000     6.0000 </r>
       <r>   -37.6418     0.0000     6.0000 </r>
       <r>   -37.4587     0.0000     6.0000 </r>
       <r>   -37.2757     0.0000     6.0000 </r>
       <r>   -37.0927     0.0000     6.0000 </r>
       <r>   -36.9097     0.0000     6.0000 </r>
       <r>   -36.7266     0.0000     6.0000 </r>
       <r>   -36.5436     0.0000     6.0000 </r>
       <r>   -36.3606     0.0000     6.0000 </r>
       <r>   -36.1776     0.0000     6.0000 </r>
       <r>   -35.9946     0.0000     6.0000 </r>
       <r>   -35.8115     0.0000     6.0000 </r>
       <r>   -35.6285     0.0000     6.0000 </r>
       <r>   -35.4455     0.0000     6.0000 </r>
       <r>   -35.2625     0.0000     6.0000 </r>
       <r>   -35.0794     0.0000     6.0000 </r>
       <r>   -34.8964     0.0000     6.0000 </r>
       <r>   -34.7134     0.0000     6.0000 </r>
       <r>   -34.5304     0.0000     6.0000 </r>
       <r>   -34.3474     0.0000     6.0000 </r>
       <r>   -34.1643     0.0000     6.0000 </r>
       <r>   -33.9813     0.0000     6.0000 </r>
       <r>   -33.7983     0.0000     6.0000 </r>
       <r>   -33.6153     0.0000     6.0000 </r>
       <r>   -33.4322     0.0000     6.0000 </r>
       <r>   -33.2492     0.0000     6.0000 </r>
       <r>   -33.0662     0.0000     6.0000 </r>
       <r>   -32.8832     0.0000     6.0000 </r>
       <r>   -32.7001     0.0000     6.0000 </r>
       <r>   -32.5171     0.0000     6.0000 </r>
       <r>   -32.3341     0.0000     6.0000 </r>
       <r>   -32.1511     0.0000     6.0000 </r>
       <r>   -31.9681     0.0000     6.0000 </r>
       <r>   -31.7850     0.0000     6.0000 </r>
       <r>   -31.6020     0.0000     6.0000 </r>
       <r>   -31.4190     0.0000     6.0000 </r>
       <r>   -31.2360     0.0000     6.0000 </r>
       <r>   -31.0529     0.0000     6.0000 </r>
       <r>   -30.8699     0.0000     6.0000 </r>
       <r>   -30.6869     0.0000     6.0000 </r>
       <r>   -30.5039     0.0000     6.0000 </r>
       <r>   -30.3209     0.0000     6.0000 </r>
       <r>   -30.1378     0.0000     6.0000 </r>
       <r>   -29.9548     0.0000     6.0000 </r>
       <r>   -29.7718     0.0000     6.0000 </r>
       <r>   -29.5888     0.0000     6.0000 </r>
       <r>   -29.4057     0.0000     6.0000 </r>
       <r>   -29.2227    10.9276     8.0000 </r>
       <r>   -29.0397     0.0000     8.0000 </r>
       <r>   -28.8567     0.0000     8.0000 </r>
       <r>   -28.6737     0.0000     8.0000 </r>
       <r>   -28.4906     0.0000     8.0000 </r>
       <r>   -28.3076     0.0000     8.0000 </r>
       <r>   -28.1246     0.0000     8.0000 </r>
       <r>   -27.9416     0.0000    10.0000 </r>
       <r>   -27.7585     0.0000    10.0000 </r>
       <r>   -27.5755     0.0000    10.0000 </r>
       <r>   -27.3925     0.0000    10.0000 </r>
       <r>   -27.2095     0.0000    10.0000 </r>
       <r>   -27.0265     0.0000    10.0000 </r>
       <r>   -26.8434    10.9276    12.0000 </r>
       <r>   -26.6604     0.0000    14.0000 </r>
       <r>   -26.4774     0.0000    14.0000 </r>
       <r>   -26.2944     0.0000    14.0000 </r>
       <r>   -26.1113    10.9276    18.0000 </r>
       <r>   -25.9283     0.0000    18.0000 </r>
       <r>   -25.7453     0.0000    18.0000 </r>
       <r>   -25.5623     0.0000    18.0000 </r>
       <r>   -25.3793     0.0000    18.0000 </r>
       <r>   -25.1962     0.0000    18.0000 </r>
       <r>   -25.0132     0.0000    18.0000 </r>
       <r>   -24.8302     0.0000    18.0000 </r>
       <r>   -24.6472     0.0000    18.0000 </r>
       <r>   -24.4641     0.0000    18.0000 </r>
       <r>   -24.2811     0.0000    18.0000 </r>
       <r>   -24.0981     0.0000    18.0000 </r>
       <r>   -23.9151     0.0000    18.0000 </r>
       <r>   -23.7321     0.0000    18.0000 </r>
       <r>   -23.5490    10.9276    20.0000 </r>
       <r>   -23.3660     0.0000    20.0000 </r>
       <r>   -23.1830     0.0000    22.0000 </r>
       <r>   -23.0000     0.0000    22.0000 </r>
       <r>   -22.8169     0.0000    22.0000 </r>
       <r>   -22.6339    10.9276    24.0000 </r>
       <r>   -22.4509     5.9821    25.0949 </r>
       <r>   -22.2679     0.0000    28.0000 </r>
       <r>   -22.0849     0.0000    30.0000 </r>
       <r>   -21.9018     0.0000    32.0000 </r>
       <r>   -21.7188     0.0000    32.0000 </r>
       <r>   -21.5358    10.9276    34.0000 </r>
       <r>   -21.3528     0.0000    34.0000 </r>
       <r>   -21.1697     0.0000    34.0000 </r>
       <r>   -20.9867     0.0000    36.0000 </r>
       <r>   -20.8037    10.8338    37.9828 </r>
       <r>   -20.6207     0.0000    38.0000 </r>
       <r>   -20.4377     0.0000    38.0000 </r>
       <r>   -20.2546     0.0000    38.0000 </r>
       <r>   -20.0716     0.0000    38.0000 </r>
       <r>   -19.8886     0.0000    38.0000 </r>
       <r>   -19.7056     0.0000    38.0000 </r>
       <r>   -19.5225     0.0000    40.0000 </r>
       <r>   -19.3395    10.9276    42.0000 </r>
       <r>   -19.1565     0.0000    42.0000 </r>
       <r>   -18.9735     0.0000    42.0000 </r>
       <r>   -18.7905     0.0001    42.0000 </r>
       <r>   -18.6074     0.0000    44.0000 </r>
       <r>   -18.4244    10.9276    46.0000 </r>
       <r>   -18.2414    10.9262    47.9997 </r>
       <r>   -18.0584    10.7629    49.9699 </r>
       <r>   -17.8753     0.0190    50.0035 </r>
       <r>   -17.6923     0.0000    52.0000 </r>
       <r>   -17.5093     0.0000    56.0000 </r>
       <r>   -17.3263     8.3231    57.5233 </r>
       <r>   -17.1433     0.0000    58.0000 </r>
       <r>   -16.9602     2.0657    58.3781 </r>
       <r>   -16.7772     0.0000    60.0000 </r>
       <r>   -16.5942     0.0000    62.0000 </r>
       <r>   -16.4112     0.0000    62.0000 </r>
       <r>   -16.2281     0.0000    62.0000 </r>
       <r>   -16.0451     0.0000    62.0000 </r>
       <r>   -15.8621    10.9276    64.0000 </r>
       <r>   -15.6791    10.9276    66.0000 </r>
       <r>   -15.4961     0.0000    66.0000 </r>
       <r>   -15.3130     0.0625    66.0114 </r>
       <r>   -15.1300     0.0000    70.0000 </r>
       <r>   -14.9470     0.0000    70.0000 </r>
       <r>   -14.7640    18.8489    73.4498 </r>
       <r>   -14.5809     0.0000    76.0000 </r>
       <r>   -14.3979     0.1913    78.0350 </r>
       <r>   -14.2149     0.0000    80.0000 </r>
       <r>   -14.0319     8.6196    83.5776 </r>
       <r>   -13.8489     0.0002    88.0000 </r>
       <r>   -13.6658     0.0000    90.0000 </r>
       <r>   -13.4828     3.4169    92.6254 </r>
       <r>   -13.2998     0.0000    96.0000 </r>
       <r>   -13.1168    10.9133    99.9974 </r>
       <r>   -12.9337    10.9211   101.9988 </r>
       <r>   -12.7507     0.0000   106.0000 </r>
       <r>   -12.5677    10.9276   110.0000 </r>
       <r>   -12.3847    10.9276   112.0000 </r>
       <r>   -12.2017     0.0515   114.0094 </r>
       <r>   -12.0186     0.0000   118.0000 </r>
       <r>   -11.8356     0.0000   120.0000 </r>
       <r>   -11.6526     5.3827   120.9852 </r>
       <r>   -11.4696     0.0000   124.0000 </r>
       <r>   -11.2865     0.0000   126.0000 </r>
       <r>   -11.1035    13.0762   128.3932 </r>
       <r>   -10.9205     0.0000   130.0000 </r>
       <r>   -10.7375    10.9287   134.0002 </r>
       <r>   -10.5545    10.9259   137.9997 </r>
       <r>   -10.3714     0.0000   140.0000 </r>
       <r>   -10.1884     3.3846   140.6195 </r>
       <r>   -10.0054     0.0000   144.0000 </r>
       <r>    -9.8224     0.0014   146.0003 </r>
       <r>    -9.6393    10.9184   151.9983 </r>
       <r>    -9.4563     0.0000   152.0000 </r>
       <r>    -9.2733     0.0000   154.0000 </r>
       <r>    -9.0903     1.6361   154.2994 </r>
       <r>    -8.9073     0.0000   156.0000 </r>
       <r>    -8.7242    10.8755   157.9905 </r>
       <r>    -8.5412     0.0000   158.0000 </r>
       <r>    -8.3582    10.9276   160.0000 </r>
       <r>    -8.1752     0.0000   160.0000 </r>
       <r>    -7.9921     0.0000   160.0000 </r>
       <r>    -7.8091     0.0000   160.0000 </r>
       <r>    -7.6261     0.0000   160.0000 </r>
       <r>    -7.4431     0.0000   162.0000 </r>
       <r>    -7.2601     0.0002   164.0000 </r>
       <r>    -7.0770     0.0000   166.0000 </r>
       <r>    -6.8940     0.0000   166.0000 </r>
       <r>    -6.7110     0.0000   166.0000 </r>
       <r>    -6.5280     0.0000   166.0000 </r>
       <r>    -6.3449     0.0000   166.0000 </r>
       <r>    -6.1619     0.0000   166.0000 </r>
       <r>    -5.9789     0.0000   166.0000 </r>
       <r>    -5.7959     0.0000   168.0000 </r>
       <r>    -5.6129     0.0000   168.0000 </r>
       <r>    -5.4298     0.0000   168.0000 </r>
       <r>    -5.2468     0.0000   168.0000 </r>
       <r>    -5.0638     0.0000   168.0000 </r>
       <r>    -4.8808    10.9276   172.0000 </r>
       <r>    -4.6977     0.0000   172.0000 </r>
       <r>    -4.5147     0.0000   172.0000 </r>
       <r>    -4.3317     0.0000   174.0000 </r>
       <r>    -4.1487    10.9277   176.0000 </r>
       <r>    -3.9657    14.4853   180.6511 </r>
       <r>    -3.7826     0.0000   182.0000 </r>
       <r>    -3.5996     4.5737   182.8371 </r>
       <r>    -3.4166    10.9276   186.0000 </r>
       <r>    -3.2336    10.9276   188.0000 </r>
       <r>    -3.0505     0.0000   188.0000 </r>
       <r>    -2.8675     0.0000   190.0000 </r>
       <r>    -2.6845    10.9276   192.0000 </r>
       <r>    -2.5015     0.0000   192.0000 </r>
       <r>    -2.3185     0.0000   192.0000 </r>
       <r>    -2.1354     0.0000   192.0000 </r>
       <r>    -1.9524     0.0000   192.0000 </r>
       <r>    -1.7694     0.0000   194.0000 </r>
       <r>    -1.5864    10.9276   198.0000 </r>
       <r>    -1.4033     8.3469   199.5277 </r>
       <r>    -1.2203    10.9277   202.0000 </r>
       <r>    -1.0373    10.9276   206.0000 </r>
       <r>    -0.8543     0.0000   210.0000 </r>
       <r>    -0.6713    11.3166   212.0712 </r>
       <r>    -0.4882    10.9276   218.0000 </r>
       <r>    -0.3052    18.4597   225.3785 </r>
       <r>    -0.1222    10.9276   228.0000 </r>
       <r>     0.0608    21.8655   234.0019 </r>
       <r>     0.2439    10.9087   239.9965 </r>
       <r>     0.4269    21.8305   245.9955 </r>
       <r>     0.6099    21.8737   252.0034 </r>
       <r>     0.7929     0.0000   256.0000 </r>
       <r>     0.9759     0.0000   256.0000 </r>
       <r>     1.1590     0.0000   256.0000 </r>
       <r>     1.3420     0.0000   256.0000 </r>
       <r>     1.5250     0.0000   256.0000 </r>
       <r>     1.7080     0.0000   256.0000 </r>
       <r>     1.8911     0.0000   256.0000 </r>
       <r>     2.0741     0.0000   256.0000 </r>
       <r>     2.2571     0.0000   256.0000 </r>
       <r>     2.4401     0.0000   256.0000 </r>
       <r>     2.6231     0.0000   256.0000 </r>
       <r>     2.8062     0.0000   256.0000 </r>
       <r>     2.9892     0.0000   256.0000 </r>
       <r>     3.1722     0.0000   256.0000 </r>
      </set>
      <set comment="spin 2">
       <r>   -51.7345     0.0000     0.0000 </r>
       <r>   -51.5514     0.0000     0.0000 </r>
       <r>   -51.3684     0.0000     0.0000 </r>
       <r>   -51.1854     0.0000     0.0000 </r>
       <r>   -51.0024     0.0000     0.0000 </r>
       <r>   -50.8194     0.0000     0.0000 </r>
       <r>   -50.6363     0.0000     0.0000 </r>
       <r>   -50.4533     0.0000     0.0000 </r>
       <r>   -50.2703     0.0000     0.0000 </r>
       <r>   -50.0873     0.0000     0.0000 </r>
       <r>   -49.9042     0.0000     0.0000 </r>
       <r>   -49.7212     0.0000     0.0000 </r>
       <r>   -49.5382     0.0000     0.0000 </r>
       <r>   -49.3552     0.0000     0.0000 </r>
       <r>   -49.1722    10.9276     2.0000 </r>
       <r>   -48.9891     0.0000     4.0000 </r>
       <r>   -48.8061    10.9276     6.0000 </r>
       <r>   -48.6231     0.0000     6.0000 </r>
       <r>   -48.4401     0.0000     6.0000 </r>
       <r>   -48.2570     0.0000     6.0000 </r>
       <r>   -48.0740     0.0000     6.0000 </r>
       <r>   -47.8910     0.0000     6.0000 </r>
       <r>   -47.7080     0.0000     6.0000 </r>
       <r>   -47.5250     0.0000     6.0000 </r>
       <r>   -47.3419     0.0000     6.0000 </r>
       <r>   -47.1589     0.0000     6.0000 </r>
       <r>   -46.9759     0.0000     6.0000 </r>
       <r>   -46.7929     0.0000     6.0000 </r>
       <r>   -46.6098     0.0000     6.0000 </r>
       <r>   -46.4268     0.0000     6.0000 </r>
       <r>   -46.2438     0.0000     6.0000 </r>
       <r>   -46.0608     0.0000     6.0000 </r>
       <r>   -45.8778     0.0000     6.0000 </r>
       <r>   -45.6947     0.0000     6.0000 </r>
       <r>   -45.5117     0.0000     6.0000 </r>
       <r>   -45.3287     0.0000     6.0000 </r>
       <r>   -45.1457     0.0000     6.0000 </r>
       <r>   -44.9626     0.0000     6.0000 </r>
       <r>   -44.7796     0.0000     6.0000 </r>
       <r>   -44.5966     0.0000     6.0000 </r>
       <r>   -44.4136     0.0000     6.0000 </r>
       <r>   -44.2306     0.0000     6.0000 </r>
       <r>   -44.0475     0.0000     6.0000 </r>
       <r>   -43.8645     0.0000     6.0000 </r>
       <r>   -43.6815     0.0000     6.0000 </r>
       <r>   -43.4985     0.0000     6.0000 </r>
       <r>   -43.3154     0.0000     6.0000 </r>
       <r>   -43.1324     0.0000     6.0000 </r>
       <r>   -42.9494     0.0000     6.0000 </r>
       <r>   -42.7664     0.0000     6.0000 </r>
       <r>   -42.5834     0.0000     6.0000 </r>
       <r>   -42.4003     0.0000     6.0000 </r>
       <r>   -42.2173     0.0000     6.0000 </r>
       <r>   -42.0343     0.0000     6.0000 </r>
       <r>   -41.8513     0.0000     6.0000 </r>
       <r>   -41.6682     0.0000     6.0000 </r>
       <r>   -41.4852     0.0000     6.0000 </r>
       <r>   -41.3022     0.0000     6.0000 </r>
       <r>   -41.1192     0.0000     6.0000 </r>
       <r>   -40.9362     0.0000     6.0000 </r>
       <r>   -40.7531     0.0000     6.0000 </r>
       <r>   -40.5701     0.0000     6.0000 </r>
       <r>   -40.3871     0.0000     6.0000 </r>
       <r>   -40.2041     0.0000     6.0000 </r>
       <r>   -40.0210     0.0000     6.0000 </r>
       <r>   -39.8380     0.0000     6.0000 </r>
       <r>   -39.6550     0.0000     6.0000 </r>
       <r>   -39.4720     0.0000     6.0000 </r>
       <r>   -39.2890     0.0000     6.0000 </r>
       <r>   -39.1059     0.0000     6.0000 </r>
       <r>   -38.9229     0.0000     6.0000 </r>
       <r>   -38.7399     0.0000     6.0000 </r>
       <r>   -38.5569     0.0000     6.0000 </r>
       <r>   -38.3738     0.0000     6.0000 </r>
       <r>   -38.1908     0.0000     6.0000 </r>
       <r>   -38.0078     0.0000     6.0000 </r>
       <r>   -37.8248     0.0000     6.0000 </r>
       <r>   -37.6418     0.0000     6.0000 </r>
       <r>   -37.4587     0.0000     6.0000 </r>
       <r>   -37.2757     0.0000     6.0000 </r>
       <r>   -37.0927     0.0000     6.0000 </r>
       <r>   -36.9097     0.0000     6.0000 </r>
       <r>   -36.7266     0.0000     6.0000 </r>
       <r>   -36.5436     0.0000     6.0000 </r>
       <r>   -36.3606     0.0000     6.0000 </r>
       <r>   -36.1776     0.0000     6.0000 </r>
       <r>   -35.9946     0.0000     6.0000 </r>
       <r>   -35.8115     0.0000     6.0000 </r>
       <r>   -35.6285     0.0000     6.0000 </r>
       <r>   -35.4455     0.0000     6.0000 </r>
       <r>   -35.2625     0.0000     6.0000 </r>
       <r>   -35.0794     0.0000     6.0000 </r>
       <r>   -34.8964     0.0000     6.0000 </r>
       <r>   -34.7134     0.0000     6.0000 </r>
       <r>   -34.5304     0.0000     6.0000 </r>
       <r>   -34.3474     0.0000     6.0000 </r>
       <r>   -34.1643     0.0000     6.0000 </r>
       <r>   -33.9813     0.0000     6.0000 </r>
       <r>   -33.7983     0.0000     6.0000 </r>
       <r>   -33.6153     0.0000     6.0000 </r>
       <r>   -33.4322     0.0000     6.0000 </r>
       <r>   -33.2492     0.0000     6.0000 </r>
       <r>   -33.0662     0.0000     6.0000 </r>
       <r>   -32.8832     0.0000     6.0000 </r>
       <r>   -32.7001     0.0000     6.0000 </r>
       <r>   -32.5171     0.0000     6.0000 </r>
       <r>   -32.3341     0.0000     6.0000 </r>
       <r>   -32.1511     0.0000     6.0000 </r>
       <r>   -31.9681     0.0000     6.0000 </r>
       <r>   -31.7850     0.0000     6.0000 </r>
       <r>   -31.6020     0.0000     6.0000 </r>
       <r>   -31.4190     0.0000     6.0000 </r>
       <r>   -31.2360     0.0000     6.0000 </r>
       <r>   -31.0529     0.0000     6.0000 </r>
       <r>   -30.8699     0.0000     6.0000 </r>
       <r>   -30.6869     0.0000     6.0000 </r>
       <r>   -30.5039     0.0000     6.0000 </r>
       <r>   -30.3209     0.0000     6.0000 </r>
       <r>   -30.1378     0.0000     6.0000 </r>
       <r>   -29.9548     0.0000     6.0000 </r>
       <r>   -29.7718     0.0000     6.0000 </r>
       <r>   -29.5888     0.0000     6.0000 </r>
       <r>   -29.4057     0.0000     6.0000 </r>
       <r>   -29.2227    10.9276     8.0000 </r>
       <r>   -29.0397     0.0000     8.0000 </r>
       <r>   -28.8567     0.0000     8.0000 </r>
       <r>   -28.6737     0.0000     8.0000 </r>
       <r>   -28.4906     0.0000     8.0000 </r>
       <r>   -28.3076     0.0000     8.0000 </r>
       <r>   -28.1246     0.0000     8.0000 </r>
       <r>   -27.9416     0.0000    10.0000 </r>
       <r>   -27.7585     0.0000    10.0000 </r>
       <r>   -27.5755     0.0000    10.0000 </r>
       <r>   -27.3925     0.0000    10.0000 </r>
       <r>   -27.2095     0.0000    10.0000 </r>
       <r>   -27.0265     0.0000    10.0000 </r>
       <r>   -26.8434    10.9276    12.0000 </r>
       <r>   -26.6604     0.0000    14.0000 </r>
       <r>   -26.4774     0.0000    14.0000 </r>
       <r>   -26.2944     0.0000    14.0000 </r>
       <r>   -26.1113    10.9276    18.0000 </r>
       <r>   -25.9283     0.0000    18.0000 </r>
       <r>   -25.7453     0.0000    18.0000 </r>
       <r>   -25.5623     0.0000    18.0000 </r>
       <r>   -25.3793     0.0000    18.0000 </r>
       <r>   -25.1962     0.0000    18.0000 </r>
       <r>   -25.0132     0.0000    18.0000 </r>
       <r>   -24.8302     0.0000    18.0000 </r>
       <r>   -24.6472     0.0000    18.0000 </r>
       <r>   -24.4641     0.0000    18.0000 </r>
       <r>   -24.2811     0.0000    18.0000 </r>
       <r>   -24.0981     0.0000    18.0000 </r>
       <r>   -23.9151     0.0000    18.0000 </r>
       <r>   -23.7321     0.0000    18.0000 </r>
       <r>   -23.5490    10.9276    20.0000 </r>
       <r>   -23.3660     0.0000    20.0000 </r>
       <r>   -23.1830     0.0000    22.0000 </r>
       <r>   -23.0000     0.0000    22.0000 </r>
       <r>   -22.8169     0.0000    22.0000 </r>
       <r>   -22.6339    10.9276    24.0000 </r>
       <r>   -22.4509     5.9820    25.0948 </r>
       <r>   -22.2679     0.0000    28.0000 </r>
       <r>   -22.0849     0.0000    30.0000 </r>
       <r>   -21.9018     0.0000    32.0000 </r>
       <r>   -21.7188     0.0000    32.0000 </r>
       <r>   -21.5358    10.9276    34.0000 </r>
       <r>   -21.3528     0.0000    34.0000 </r>
       <r>   -21.1697     0.0000    34.0000 </r>
       <r>   -20.9867     0.0000    36.0000 </r>
       <r>   -20.8037    10.8338    37.9828 </r>
       <r>   -20.6207     0.0000    38.0000 </r>
       <r>   -20.4377     0.0000    38.0000 </r>
       <r>   -20.2546     0.0000    38.0000 </r>
       <r>   -20.0716     0.0000    38.0000 </r>
       <r>   -19.8886     0.0000    38.0000 </r>
       <r>   -19.7056     0.0000    38.0000 </r>
       <r>   -19.5225     0.0000    40.0000 </r>
       <r>   -19.3395    10.9276    42.0000 </r>
       <r>   -19.1565     0.0000    42.0000 </r>
       <r>   -18.9735     0.0000    42.0000 </r>
       <r>   -18.7905     0.0001    42.0000 </r>
       <r>   -18.6074     0.0000    44.0000 </r>
       <r>   -18.4244    10.9276    46.0000 </r>
       <r>   -18.2414    10.9262    47.9997 </r>
       <r>   -18.0584    10.7629    49.9699 </r>
       <r>   -17.8753     0.0190    50.0035 </r>
       <r>   -17.6923     0.0000    52.0000 </r>
       <r>   -17.5093     0.0000    56.0000 </r>
       <r>   -17.3263     8.3231    57.5233 </r>
       <r>   -17.1433     0.0000    58.0000 </r>
       <r>   -16.9602     2.0657    58.3781 </r>
       <r>   -16.7772     0.0000    60.0000 </r>
       <r>   -16.5942     0.0000    62.0000 </r>
       <r>   -16.4112     0.0000    62.0000 </r>
       <r>   -16.2281     0.0000    62.0000 </r>
       <r>   -16.0451     0.0000    62.0000 </r>
       <r>   -15.8621    10.9276    64.0000 </r>
       <r>   -15.6791    10.9276    66.0000 </r>
       <r>   -15.4961     0.0000    66.0000 </r>
       <r>   -15.3130     0.0625    66.0114 </r>
       <r>   -15.1300     0.0000    70.0000 </r>
       <r>   -14.9470     0.0000    70.0000 </r>
       <r>   -14.7640    18.8489    73.4498 </r>
       <r>   -14.5809     0.0000    76.0000 </r>
       <r>   -14.3979     0.1913    78.0350 </r>
       <r>   -14.2149     0.0000    80.0000 </r>
       <r>   -14.0319     8.6195    83.5776 </r>
       <r>   -13.8489     0.0002    88.0000 </r>
       <r>   -13.6658     0.0000    90.0000 </r>
       <r>   -13.4828     3.4169    92.6254 </r>
       <r>   -13.2998     0.0000    96.0000 </r>
       <r>   -13.1168    10.9133    99.9974 </r>
       <r>   -12.9337    10.9211   101.9988 </r>
       <r>   -12.7507     0.0000   106.0000 </r>
       <r>   -12.5677    10.9276   110.0000 </r>
       <r>   -12.3847    10.9276   112.0000 </r>
       <r>   -12.2017     0.0515   114.0094 </r>
       <r>   -12.0186     0.0000   118.0000 </r>
       <r>   -11.8356     0.0000   120.0000 </r>
       <r>   -11.6526     5.3827   120.9852 </r>
       <r>   -11.4696     0.0000   124.0000 </r>
       <r>   -11.2865     0.0000   126.0000 </r>
       <r>   -11.1035    13.0762   128.3932 </r>
       <r>   -10.9205     0.0000   130.0000 </r>
       <r>   -10.7375    10.9287   134.0002 </r>
       <r>   -10.5545    10.9259   137.9997 </r>
       <r>   -10.3714     0.0000   140.0000 </r>
       <r>   -10.1884     3.3845   140.6194 </r>
       <r>   -10.0054     0.0000   144.0000 </r>
       <r>    -9.8224     0.0014   146.0003 </r>
       <r>    -9.6393    10.9184   151.9983 </r>
       <r>    -9.4563     0.0000   152.0000 </r>
       <r>    -9.2733     0.0000   154.0000 </r>
       <r>    -9.0903     1.6361   154.2994 </r>
       <r>    -8.9073     0.0000   156.0000 </r>
       <r>    -8.7242    10.8755   157.9905 </r>
       <r>    -8.5412     0.0000   158.0000 </r>
       <r>    -8.3582    10.9276   160.0000 </r>
       <r>    -8.1752     0.0000   160.0000 </r>
       <r>    -7.9921     0.0000   160.0000 </r>
       <r>    -7.8091     0.0000   160.0000 </r>
       <r>    -7.6261     0.0000   160.0000 </r>
       <r>    -7.4431     0.0000   162.0000 </r>
       <r>    -7.2601     0.0002   164.0000 </r>
       <r>    -7.0770     0.0000   166.0000 </r>
       <r>    -6.8940     0.0000   166.0000 </r>
       <r>    -6.7110     0.0000   166.0000 </r>
       <r>    -6.5280     0.0000   166.0000 </r>
       <r>    -6.3449     0.0000   166.0000 </r>
       <r>    -6.1619     0.0000   166.0000 </r>
       <r>    -5.9789     0.0000   166.0000 </r>
       <r>    -5.7959     0.0000   168.0000 </r>
       <r>    -5.6129     0.0000   168.0000 </r>
       <r>    -5.4298     0.0000   168.0000 </r>
       <r>    -5.2468     0.0000   168.0000 </r>
       <r>    -5.0638     0.0000   168.0000 </r>
       <r>    -4.8808    10.9276   172.0000 </r>
       <r>    -4.6977     0.0000   172.0000 </r>
       <r>    -4.5147     0.0000   172.0000 </r>
       <r>    -4.3317     0.0000   174.0000 </r>
       <r>    -4.1487    10.9277   176.0000 </r>
       <r>    -3.9657    14.4854   180.6512 </r>
       <r>    -3.7826     0.0000   182.0000 </r>
       <r>    -3.5996     4.5737   182.8371 </r>
       <r>    -3.4166    10.9276   186.0000 </r>
       <r>    -3.2336    10.9276   188.0000 </r>
       <r>    -3.0505     0.0000   188.0000 </r>
       <r>    -2.8675     0.0000   190.0000 </r>
       <r>    -2.6845    10.9276   192.0000 </r>
       <r>    -2.5015     0.0000   192.0000 </r>
       <r>    -2.3185     0.0000   192.0000 </r>
       <r>    -2.1354     0.0000   192.0000 </r>
       <r>    -1.9524     0.0000   192.0000 </r>
       <r>    -1.7694     0.0000   194.0000 </r>
       <r>    -1.5864    10.9276   198.0000 </r>
       <r>    -1.4033     8.3466   199.5276 </r>
       <r>    -1.2203    10.9277   202.0000 </r>
       <r>    -1.0373    10.9276   206.0000 </r>
       <r>    -0.8543     0.0000   210.0000 </r>
       <r>    -0.6713    11.3165   212.0712 </r>
       <r>    -0.4882    10.9276   218.0000 </r>
       <r>    -0.3052    18.4583   225.3783 </r>
       <r>    -0.1222    10.9276   228.0000 </r>
       <r>     0.0608    21.8655   234.0019 </r>
       <r>     0.2439    10.9086   239.9965 </r>
       <r>     0.4269    21.8304   245.9955 </r>
       <r>     0.6099    21.8733   252.0033 </r>
       <r>     0.7929     0.0000   256.0000 </r>
       <r>     0.9759     0.0000   256.0000 </r>
       <r>     1.1590     0.0000   256.0000 </r>
       <r>     1.3420     0.0000   256.0000 </r>
       <r>     1.5250     0.0000   256.0000 </r>
       <r>     1.7080     0.0000   256.0000 </r>
       <r>     1.8911     0.0000   256.0000 </r>
       <r>     2.0741     0.0000   256.0000 </r>
       <r>     2.2571     0.0000   256.0000 </r>
       <r>     2.4401     0.0000   256.0000 </r>
       <r>     2.6231     0.0000   256.0000 </r>
       <r>     2.8062     0.0000   256.0000 </r>
       <r>     2.9892     0.0000   256.0000 </r>
       <r>     3.1722     0.0000   256.0000 </r>
      </set>
     </set>
    </array>
   </total>
  </dos>
 </calculation>
 <structure name="finalpos" >
  <crystal>
   <varray name="basis" >
    <v>      20.00000000       0.00000000       0.00000000 </v>
    <v>       0.00000000      20.00000000       0.00000000 </v>
    <v>       0.00000000       0.00000000      20.00000000 </v>
   </varray>
   <i name="volume">   8000.00000000 </i>
   <varray name="rec_basis" >
    <v>       0.05000000       0.00000000       0.00000000 </v>
    <v>       0.00000000       0.05000000       0.00000000 </v>
    <v>       0.00000000       0.00000000       0.05000000 </v>
   </varray>
  </crystal>
  <varray name="positions" >
   <v>       0.63952130       0.46927713       0.56732841 </v>
   <v>       0.43793752       0.56561110       0.32757008 </v>
   <v>       0.45581208       0.52423376       0.38051465 </v>
   <v>       0.47372925       0.61530131       0.44986522 </v>
   <v>       0.45595175       0.65963312       0.39935201 </v>
   <v>       0.43785737       0.63472201       0.33675972 </v>
   <v>       0.52307882       0.32955005       0.67474498 </v>
   <v>       0.49710163       0.37190466       0.62618823 </v>
   <v>       0.60227374       0.41933300       0.60593616 </v>
   <v>       0.63096398       0.37761922       0.65422416 </v>
   <v>       0.73964927       0.52855915       0.53463181 </v>
   <v>       0.70082162       0.56612858       0.49044049 </v>
   <v>       0.63257913       0.55363620       0.48652424 </v>
   <v>       0.29334713       0.47671938       0.56830116 </v>
   <v>       0.70843899       0.47974495       0.57314689 </v>
   <v>       0.59134754       0.33224398       0.68903016 </v>
   <v>       0.36211554       0.48866484       0.56417415 </v>
   <v>       0.40790931       0.62211625       0.69058213 </v>
   <v>       0.47619960       0.62606623       0.67660612 </v>
   <v>       0.50295190       0.58590820       0.62668073 </v>
   <v>       0.39825425       0.53800137       0.60426081 </v>
   <v>       0.36904589       0.57756069       0.65398228 </v>
   <v>       0.37289802       0.40579857       0.48223443 </v>
   <v>       0.30486503       0.39173492       0.48443166 </v>
   <v>       0.26422003       0.42785518       0.52821594 </v>
   <v>       0.48989745       0.29510618       0.70074864 </v>
   <v>       0.61334240       0.29968355       0.72673159 </v>
   <v>       0.68424189       0.38076917       0.66478776 </v>
   <v>       0.54225374       0.36233861       0.46129841 </v>
   <v>       0.31579090       0.57306911       0.66420366 </v>
   <v>       0.44416348       0.37118871       0.61364770 </v>
   <v>       0.42392665       0.66833230       0.29622671 </v>
   <v>       0.45642762       0.71313270       0.40950260 </v>
   <v>       0.48809132       0.63358802       0.49907234 </v>
   <v>       0.56912778       0.41808713       0.41480476 </v>
   <v>       0.73767440       0.44963919       0.60776512 </v>
   <v>       0.72277620       0.60481012       0.45904817 </v>
   <v>       0.45570253       0.47012894       0.37468790 </v>
   <v>       0.40614333       0.37888556       0.44852541 </v>
   <v>       0.28443799       0.35306162       0.45202062 </v>
   <v>       0.79326502       0.53703787       0.53892527 </v>
   <v>       0.55589708       0.58769132       0.61440612 </v>
   <v>       0.42412006       0.54328620       0.27986105 </v>
   <v>       0.50894741       0.65984570       0.70400156 </v>
   <v>       0.26265982       0.50568523       0.60265428 </v>
   <v>       0.21072272       0.41813760       0.53105039 </v>
   <v>       0.60090654       0.58197914       0.45254259 </v>
   <v>       0.38544357       0.65296704       0.72941133 </v>
   <v>       0.47424490       0.54794204       0.44140236 </v>
   <v>       0.40180479       0.45306079       0.52108436 </v>
   <v>       0.53520702       0.41608490       0.59173240 </v>
   <v>       0.46544808       0.54254992       0.59041194 </v>
   <v>       0.60138410       0.50650621       0.52397638 </v>
   <v>       0.53073984       0.40562607       0.44215451 </v>
   <v>       0.50088568       0.48087016       0.51934246 </v>
  </varray>
  <varray name="selective"  type="logical" >
   <v type="logical" >  T  T  T </v>
   <v type="logical" >  T  T  T </v>
   <v type="logical" >  T  T  T </v>
   <v type="logical" >  T  T  T </v>
   <v type="logical" >  T  T  T </v>
   <v type="logical" >  T  T  T </v>
   <v type="logical" >  T  T  T </v>
   <v type="logical" >  T  T  T </v>
   <v type="logical" >  T  T  T </v>
   <v type="logical" >  T  T  T </v>
   <v type="logical" >  T  T  T </v>
   <v type="logical" >  T  T  T </v>
   <v type="logical" >  T  T  T </v>
   <v type="logical" >  T  T  T </v>
   <v type="logical" >  T  T  T </v>
   <v type="logical" >  T  T  T </v>
   <v type="logical" >  T  T  T </v>
   <v type="logical" >  T  T  T </v>
   <v type="logical" >  T  T  T </v>
   <v type="logical" >  T  T  T </v>
   <v type="logical" >  T  T  T </v>
   <v type="logical" >  T  T  T </v>
   <v type="logical" >  T  T  T </v>
   <v type="logical" >  T  T  T </v>
   <v type="logical" >  T  T  T </v>
   <v type="logical" >  T  T  T </v>
   <v type="logical" >  T  T  T </v>
   <v type="logical" >  T  T  T </v>
   <v type="logical" >  T  T  T </v>
   <v type="logical" >  T  T  T </v>
   <v type="logical" >  T  T  T </v>
   <v type="logical" >  T  T  T </v>
   <v type="logical" >  T  T  T </v>
   <v type="logical" >  T  T  T </v>
   <v type="logical" >  T  T  T </v>
   <v type="logical" >  T  T  T </v>
   <v type="logical" >  T  T  T </v>
   <v type="logical" >  T  T  T </v>
   <v type="logical" >  T  T  T </v>
   <v type="logical" >  T  T  T </v>
   <v type="logical" >  T  T  T </v>
   <v type="logical" >  T  T  T </v>
   <v type="logical" >  T  T  T </v>
   <v type="logical" >  T  T  T </v>
   <v type="logical" >  T  T  T </v>
   <v type="logical" >  T  T  T </v>
   <v type="logical" >  T  T  T </v>
   <v type="logical" >  T  T  T </v>
   <v type="logical" >  T  T  T </v>
   <v type="logical" >  T  T  T </v>
   <v type="logical" >  T  T  T </v>
   <v type="logical" >  T  T  T </v>
   <v type="logical" >  T  T  T </v>
   <v type="logical" >  T  T  T </v>
   <v type="logical" >  T  T  T </v>
  </varray>
  <nose>
   <v>      -3.00000000       0.00000000       0.00010000       0.00010000 </v>
  </nose>
 </structure>
</modeling>
